LAMMPS data file for FCC alloy

4000 atoms

5 atom types

0.0 35.6 xlo xhi
0.0 35.6 ylo yhi
0.0 35.6 zlo zhi

Masses

1 55.845
2 58.6934
3 51.9961
4 58.933195
5 26.9815385

Atoms

1 2 0.0 0.0 0.0
2 1 1.78 1.78 0.0
3 2 0.0 1.78 1.78
4 5 1.78 0.0 1.78
5 2 3.56 0.0 0.0
6 2 5.34 1.78 0.0
7 2 3.56 1.78 1.78
8 3 5.34 0.0 1.78
9 2 7.12 0.0 0.0
10 4 8.9 1.78 0.0
11 1 7.12 1.78 1.78
12 3 8.9 0.0 1.78
13 4 10.68 0.0 0.0
14 2 12.459999999999999 1.78 0.0
15 2 10.68 1.78 1.78
16 2 12.459999999999999 0.0 1.78
17 3 14.24 0.0 0.0
18 2 16.02 1.78 0.0
19 1 14.24 1.78 1.78
20 2 16.02 0.0 1.78
21 5 17.8 0.0 0.0
22 1 19.580000000000002 1.78 0.0
23 5 17.8 1.78 1.78
24 2 19.580000000000002 0.0 1.78
25 5 21.36 0.0 0.0
26 2 23.14 1.78 0.0
27 1 21.36 1.78 1.78
28 1 23.14 0.0 1.78
29 3 24.92 0.0 0.0
30 5 26.700000000000003 1.78 0.0
31 2 24.92 1.78 1.78
32 4 26.700000000000003 0.0 1.78
33 4 28.48 0.0 0.0
34 2 30.26 1.78 0.0
35 4 28.48 1.78 1.78
36 4 30.26 0.0 1.78
37 1 32.04 0.0 0.0
38 4 33.82 1.78 0.0
39 1 32.04 1.78 1.78
40 3 33.82 0.0 1.78
41 2 0.0 3.56 0.0
42 4 1.78 5.34 0.0
43 2 0.0 5.34 1.78
44 2 1.78 3.56 1.78
45 4 3.56 3.56 0.0
46 4 5.34 5.34 0.0
47 1 3.56 5.34 1.78
48 2 5.34 3.56 1.78
49 4 7.12 3.56 0.0
50 1 8.9 5.34 0.0
51 2 7.12 5.34 1.78
52 2 8.9 3.56 1.78
53 2 10.68 3.56 0.0
54 2 12.459999999999999 5.34 0.0
55 4 10.68 5.34 1.78
56 2 12.459999999999999 3.56 1.78
57 2 14.24 3.56 0.0
58 1 16.02 5.34 0.0
59 2 14.24 5.34 1.78
60 4 16.02 3.56 1.78
61 1 17.8 3.56 0.0
62 2 19.580000000000002 5.34 0.0
63 4 17.8 5.34 1.78
64 2 19.580000000000002 3.56 1.78
65 1 21.36 3.56 0.0
66 4 23.14 5.34 0.0
67 2 21.36 5.34 1.78
68 3 23.14 3.56 1.78
69 2 24.92 3.56 0.0
70 2 26.700000000000003 5.34 0.0
71 5 24.92 5.34 1.78
72 5 26.700000000000003 3.56 1.78
73 1 28.48 3.56 0.0
74 2 30.26 5.34 0.0
75 2 28.48 5.34 1.78
76 5 30.26 3.56 1.78
77 2 32.04 3.56 0.0
78 3 33.82 5.34 0.0
79 4 32.04 5.34 1.78
80 2 33.82 3.56 1.78
81 4 0.0 7.12 0.0
82 2 1.78 8.9 0.0
83 2 0.0 8.9 1.78
84 1 1.78 7.12 1.78
85 4 3.56 7.12 0.0
86 2 5.34 8.9 0.0
87 3 3.56 8.9 1.78
88 2 5.34 7.12 1.78
89 2 7.12 7.12 0.0
90 2 8.9 8.9 0.0
91 5 7.12 8.9 1.78
92 3 8.9 7.12 1.78
93 4 10.68 7.12 0.0
94 2 12.459999999999999 8.9 0.0
95 2 10.68 8.9 1.78
96 4 12.459999999999999 7.12 1.78
97 3 14.24 7.12 0.0
98 3 16.02 8.9 0.0
99 1 14.24 8.9 1.78
100 4 16.02 7.12 1.78
101 5 17.8 7.12 0.0
102 4 19.580000000000002 8.9 0.0
103 2 17.8 8.9 1.78
104 5 19.580000000000002 7.12 1.78
105 2 21.36 7.12 0.0
106 4 23.14 8.9 0.0
107 5 21.36 8.9 1.78
108 1 23.14 7.12 1.78
109 2 24.92 7.12 0.0
110 5 26.700000000000003 8.9 0.0
111 2 24.92 8.9 1.78
112 2 26.700000000000003 7.12 1.78
113 2 28.48 7.12 0.0
114 1 30.26 8.9 0.0
115 3 28.48 8.9 1.78
116 2 30.26 7.12 1.78
117 2 32.04 7.12 0.0
118 2 33.82 8.9 0.0
119 4 32.04 8.9 1.78
120 2 33.82 7.12 1.78
121 2 0.0 10.68 0.0
122 2 1.78 12.459999999999999 0.0
123 4 0.0 12.459999999999999 1.78
124 2 1.78 10.68 1.78
125 4 3.56 10.68 0.0
126 4 5.34 12.459999999999999 0.0
127 2 3.56 12.459999999999999 1.78
128 2 5.34 10.68 1.78
129 3 7.12 10.68 0.0
130 2 8.9 12.459999999999999 0.0
131 2 7.12 12.459999999999999 1.78
132 1 8.9 10.68 1.78
133 2 10.68 10.68 0.0
134 3 12.459999999999999 12.459999999999999 0.0
135 1 10.68 12.459999999999999 1.78
136 2 12.459999999999999 10.68 1.78
137 2 14.24 10.68 0.0
138 3 16.02 12.459999999999999 0.0
139 4 14.24 12.459999999999999 1.78
140 5 16.02 10.68 1.78
141 4 17.8 10.68 0.0
142 1 19.580000000000002 12.459999999999999 0.0
143 3 17.8 12.459999999999999 1.78
144 3 19.580000000000002 10.68 1.78
145 2 21.36 10.68 0.0
146 2 23.14 12.459999999999999 0.0
147 2 21.36 12.459999999999999 1.78
148 1 23.14 10.68 1.78
149 1 24.92 10.68 0.0
150 3 26.700000000000003 12.459999999999999 0.0
151 3 24.92 12.459999999999999 1.78
152 4 26.700000000000003 10.68 1.78
153 4 28.48 10.68 0.0
154 5 30.26 12.459999999999999 0.0
155 2 28.48 12.459999999999999 1.78
156 2 30.26 10.68 1.78
157 2 32.04 10.68 0.0
158 5 33.82 12.459999999999999 0.0
159 5 32.04 12.459999999999999 1.78
160 1 33.82 10.68 1.78
161 5 0.0 14.24 0.0
162 2 1.78 16.02 0.0
163 4 0.0 16.02 1.78
164 2 1.78 14.24 1.78
165 5 3.56 14.24 0.0
166 4 5.34 16.02 0.0
167 4 3.56 16.02 1.78
168 2 5.34 14.24 1.78
169 2 7.12 14.24 0.0
170 2 8.9 16.02 0.0
171 4 7.12 16.02 1.78
172 2 8.9 14.24 1.78
173 4 10.68 14.24 0.0
174 3 12.459999999999999 16.02 0.0
175 2 10.68 16.02 1.78
176 4 12.459999999999999 14.24 1.78
177 2 14.24 14.24 0.0
178 4 16.02 16.02 0.0
179 5 14.24 16.02 1.78
180 4 16.02 14.24 1.78
181 3 17.8 14.24 0.0
182 2 19.580000000000002 16.02 0.0
183 2 17.8 16.02 1.78
184 4 19.580000000000002 14.24 1.78
185 2 21.36 14.24 0.0
186 4 23.14 16.02 0.0
187 2 21.36 16.02 1.78
188 2 23.14 14.24 1.78
189 2 24.92 14.24 0.0
190 5 26.700000000000003 16.02 0.0
191 1 24.92 16.02 1.78
192 4 26.700000000000003 14.24 1.78
193 2 28.48 14.24 0.0
194 5 30.26 16.02 0.0
195 4 28.48 16.02 1.78
196 1 30.26 14.24 1.78
197 4 32.04 14.24 0.0
198 2 33.82 16.02 0.0
199 2 32.04 16.02 1.78
200 2 33.82 14.24 1.78
201 1 0.0 17.8 0.0
202 2 1.78 19.580000000000002 0.0
203 2 0.0 19.580000000000002 1.78
204 5 1.78 17.8 1.78
205 2 3.56 17.8 0.0
206 2 5.34 19.580000000000002 0.0
207 2 3.56 19.580000000000002 1.78
208 4 5.34 17.8 1.78
209 5 7.12 17.8 0.0
210 1 8.9 19.580000000000002 0.0
211 3 7.12 19.580000000000002 1.78
212 2 8.9 17.8 1.78
213 4 10.68 17.8 0.0
214 2 12.459999999999999 19.580000000000002 0.0
215 5 10.68 19.580000000000002 1.78
216 4 12.459999999999999 17.8 1.78
217 4 14.24 17.8 0.0
218 3 16.02 19.580000000000002 0.0
219 1 14.24 19.580000000000002 1.78
220 2 16.02 17.8 1.78
221 4 17.8 17.8 0.0
222 2 19.580000000000002 19.580000000000002 0.0
223 5 17.8 19.580000000000002 1.78
224 2 19.580000000000002 17.8 1.78
225 4 21.36 17.8 0.0
226 2 23.14 19.580000000000002 0.0
227 4 21.36 19.580000000000002 1.78
228 5 23.14 17.8 1.78
229 4 24.92 17.8 0.0
230 2 26.700000000000003 19.580000000000002 0.0
231 2 24.92 19.580000000000002 1.78
232 2 26.700000000000003 17.8 1.78
233 2 28.48 17.8 0.0
234 2 30.26 19.580000000000002 0.0
235 1 28.48 19.580000000000002 1.78
236 2 30.26 17.8 1.78
237 4 32.04 17.8 0.0
238 2 33.82 19.580000000000002 0.0
239 2 32.04 19.580000000000002 1.78
240 2 33.82 17.8 1.78
241 2 0.0 21.36 0.0
242 4 1.78 23.14 0.0
243 2 0.0 23.14 1.78
244 2 1.78 21.36 1.78
245 2 3.56 21.36 0.0
246 2 5.34 23.14 0.0
247 2 3.56 23.14 1.78
248 4 5.34 21.36 1.78
249 2 7.12 21.36 0.0
250 4 8.9 23.14 0.0
251 1 7.12 23.14 1.78
252 2 8.9 21.36 1.78
253 2 10.68 21.36 0.0
254 2 12.459999999999999 23.14 0.0
255 3 10.68 23.14 1.78
256 2 12.459999999999999 21.36 1.78
257 2 14.24 21.36 0.0
258 4 16.02 23.14 0.0
259 4 14.24 23.14 1.78
260 1 16.02 21.36 1.78
261 4 17.8 21.36 0.0
262 2 19.580000000000002 23.14 0.0
263 3 17.8 23.14 1.78
264 4 19.580000000000002 21.36 1.78
265 2 21.36 21.36 0.0
266 2 23.14 23.14 0.0
267 2 21.36 23.14 1.78
268 3 23.14 21.36 1.78
269 2 24.92 21.36 0.0
270 2 26.700000000000003 23.14 0.0
271 2 24.92 23.14 1.78
272 2 26.700000000000003 21.36 1.78
273 2 28.48 21.36 0.0
274 3 30.26 23.14 0.0
275 2 28.48 23.14 1.78
276 2 30.26 21.36 1.78
277 5 32.04 21.36 0.0
278 3 33.82 23.14 0.0
279 4 32.04 23.14 1.78
280 2 33.82 21.36 1.78
281 2 0.0 24.92 0.0
282 4 1.78 26.700000000000003 0.0
283 2 0.0 26.700000000000003 1.78
284 3 1.78 24.92 1.78
285 2 3.56 24.92 0.0
286 2 5.34 26.700000000000003 0.0
287 3 3.56 26.700000000000003 1.78
288 2 5.34 24.92 1.78
289 2 7.12 24.92 0.0
290 4 8.9 26.700000000000003 0.0
291 4 7.12 26.700000000000003 1.78
292 4 8.9 24.92 1.78
293 2 10.68 24.92 0.0
294 4 12.459999999999999 26.700000000000003 0.0
295 4 10.68 26.700000000000003 1.78
296 2 12.459999999999999 24.92 1.78
297 2 14.24 24.92 0.0
298 4 16.02 26.700000000000003 0.0
299 3 14.24 26.700000000000003 1.78
300 1 16.02 24.92 1.78
301 2 17.8 24.92 0.0
302 2 19.580000000000002 26.700000000000003 0.0
303 2 17.8 26.700000000000003 1.78
304 4 19.580000000000002 24.92 1.78
305 4 21.36 24.92 0.0
306 2 23.14 26.700000000000003 0.0
307 2 21.36 26.700000000000003 1.78
308 2 23.14 24.92 1.78
309 4 24.92 24.92 0.0
310 5 26.700000000000003 26.700000000000003 0.0
311 2 24.92 26.700000000000003 1.78
312 2 26.700000000000003 24.92 1.78
313 2 28.48 24.92 0.0
314 2 30.26 26.700000000000003 0.0
315 4 28.48 26.700000000000003 1.78
316 2 30.26 24.92 1.78
317 5 32.04 24.92 0.0
318 2 33.82 26.700000000000003 0.0
319 3 32.04 26.700000000000003 1.78
320 1 33.82 24.92 1.78
321 2 0.0 28.48 0.0
322 2 1.78 30.26 0.0
323 2 0.0 30.26 1.78
324 1 1.78 28.48 1.78
325 3 3.56 28.48 0.0
326 2 5.34 30.26 0.0
327 4 3.56 30.26 1.78
328 4 5.34 28.48 1.78
329 2 7.12 28.48 0.0
330 5 8.9 30.26 0.0
331 2 7.12 30.26 1.78
332 1 8.9 28.48 1.78
333 4 10.68 28.48 0.0
334 5 12.459999999999999 30.26 0.0
335 2 10.68 30.26 1.78
336 2 12.459999999999999 28.48 1.78
337 5 14.24 28.48 0.0
338 4 16.02 30.26 0.0
339 2 14.24 30.26 1.78
340 3 16.02 28.48 1.78
341 2 17.8 28.48 0.0
342 2 19.580000000000002 30.26 0.0
343 2 17.8 30.26 1.78
344 2 19.580000000000002 28.48 1.78
345 2 21.36 28.48 0.0
346 2 23.14 30.26 0.0
347 4 21.36 30.26 1.78
348 2 23.14 28.48 1.78
349 2 24.92 28.48 0.0
350 5 26.700000000000003 30.26 0.0
351 5 24.92 30.26 1.78
352 5 26.700000000000003 28.48 1.78
353 4 28.48 28.48 0.0
354 3 30.26 30.26 0.0
355 5 28.48 30.26 1.78
356 2 30.26 28.48 1.78
357 4 32.04 28.48 0.0
358 2 33.82 30.26 0.0
359 2 32.04 30.26 1.78
360 4 33.82 28.48 1.78
361 4 0.0 32.04 0.0
362 3 1.78 33.82 0.0
363 4 0.0 33.82 1.78
364 1 1.78 32.04 1.78
365 5 3.56 32.04 0.0
366 4 5.34 33.82 0.0
367 2 3.56 33.82 1.78
368 3 5.34 32.04 1.78
369 4 7.12 32.04 0.0
370 2 8.9 33.82 0.0
371 4 7.12 33.82 1.78
372 2 8.9 32.04 1.78
373 2 10.68 32.04 0.0
374 3 12.459999999999999 33.82 0.0
375 2 10.68 33.82 1.78
376 1 12.459999999999999 32.04 1.78
377 1 14.24 32.04 0.0
378 2 16.02 33.82 0.0
379 2 14.24 33.82 1.78
380 2 16.02 32.04 1.78
381 2 17.8 32.04 0.0
382 2 19.580000000000002 33.82 0.0
383 3 17.8 33.82 1.78
384 2 19.580000000000002 32.04 1.78
385 3 21.36 32.04 0.0
386 4 23.14 33.82 0.0
387 2 21.36 33.82 1.78
388 3 23.14 32.04 1.78
389 2 24.92 32.04 0.0
390 5 26.700000000000003 33.82 0.0
391 2 24.92 33.82 1.78
392 2 26.700000000000003 32.04 1.78
393 2 28.48 32.04 0.0
394 5 30.26 33.82 0.0
395 2 28.48 33.82 1.78
396 4 30.26 32.04 1.78
397 2 32.04 32.04 0.0
398 2 33.82 33.82 0.0
399 2 32.04 33.82 1.78
400 3 33.82 32.04 1.78
401 1 0.0 0.0 3.56
402 4 1.78 1.78 3.56
403 2 0.0 1.78 5.34
404 3 1.78 0.0 5.34
405 2 3.56 0.0 3.56
406 2 5.34 1.78 3.56
407 4 3.56 1.78 5.34
408 2 5.34 0.0 5.34
409 2 7.12 0.0 3.56
410 2 8.9 1.78 3.56
411 2 7.12 1.78 5.34
412 2 8.9 0.0 5.34
413 1 10.68 0.0 3.56
414 4 12.459999999999999 1.78 3.56
415 5 10.68 1.78 5.34
416 2 12.459999999999999 0.0 5.34
417 1 14.24 0.0 3.56
418 2 16.02 1.78 3.56
419 2 14.24 1.78 5.34
420 2 16.02 0.0 5.34
421 4 17.8 0.0 3.56
422 1 19.580000000000002 1.78 3.56
423 1 17.8 1.78 5.34
424 5 19.580000000000002 0.0 5.34
425 2 21.36 0.0 3.56
426 2 23.14 1.78 3.56
427 2 21.36 1.78 5.34
428 1 23.14 0.0 5.34
429 5 24.92 0.0 3.56
430 1 26.700000000000003 1.78 3.56
431 5 24.92 1.78 5.34
432 4 26.700000000000003 0.0 5.34
433 2 28.48 0.0 3.56
434 5 30.26 1.78 3.56
435 1 28.48 1.78 5.34
436 2 30.26 0.0 5.34
437 3 32.04 0.0 3.56
438 3 33.82 1.78 3.56
439 1 32.04 1.78 5.34
440 2 33.82 0.0 5.34
441 3 0.0 3.56 3.56
442 2 1.78 5.34 3.56
443 2 0.0 5.34 5.34
444 5 1.78 3.56 5.34
445 2 3.56 3.56 3.56
446 2 5.34 5.34 3.56
447 1 3.56 5.34 5.34
448 2 5.34 3.56 5.34
449 4 7.12 3.56 3.56
450 2 8.9 5.34 3.56
451 4 7.12 5.34 5.34
452 3 8.9 3.56 5.34
453 1 10.68 3.56 3.56
454 1 12.459999999999999 5.34 3.56
455 5 10.68 5.34 5.34
456 1 12.459999999999999 3.56 5.34
457 2 14.24 3.56 3.56
458 1 16.02 5.34 3.56
459 2 14.24 5.34 5.34
460 3 16.02 3.56 5.34
461 2 17.8 3.56 3.56
462 4 19.580000000000002 5.34 3.56
463 2 17.8 5.34 5.34
464 2 19.580000000000002 3.56 5.34
465 3 21.36 3.56 3.56
466 3 23.14 5.34 3.56
467 2 21.36 5.34 5.34
468 5 23.14 3.56 5.34
469 2 24.92 3.56 3.56
470 5 26.700000000000003 5.34 3.56
471 2 24.92 5.34 5.34
472 2 26.700000000000003 3.56 5.34
473 3 28.48 3.56 3.56
474 4 30.26 5.34 3.56
475 2 28.48 5.34 5.34
476 2 30.26 3.56 5.34
477 2 32.04 3.56 3.56
478 4 33.82 5.34 3.56
479 1 32.04 5.34 5.34
480 4 33.82 3.56 5.34
481 2 0.0 7.12 3.56
482 3 1.78 8.9 3.56
483 3 0.0 8.9 5.34
484 2 1.78 7.12 5.34
485 4 3.56 7.12 3.56
486 3 5.34 8.9 3.56
487 2 3.56 8.9 5.34
488 2 5.34 7.12 5.34
489 2 7.12 7.12 3.56
490 2 8.9 8.9 3.56
491 2 7.12 8.9 5.34
492 1 8.9 7.12 5.34
493 2 10.68 7.12 3.56
494 1 12.459999999999999 8.9 3.56
495 3 10.68 8.9 5.34
496 2 12.459999999999999 7.12 5.34
497 3 14.24 7.12 3.56
498 2 16.02 8.9 3.56
499 4 14.24 8.9 5.34
500 2 16.02 7.12 5.34
501 3 17.8 7.12 3.56
502 2 19.580000000000002 8.9 3.56
503 2 17.8 8.9 5.34
504 2 19.580000000000002 7.12 5.34
505 2 21.36 7.12 3.56
506 2 23.14 8.9 3.56
507 2 21.36 8.9 5.34
508 2 23.14 7.12 5.34
509 2 24.92 7.12 3.56
510 2 26.700000000000003 8.9 3.56
511 4 24.92 8.9 5.34
512 2 26.700000000000003 7.12 5.34
513 3 28.48 7.12 3.56
514 2 30.26 8.9 3.56
515 3 28.48 8.9 5.34
516 2 30.26 7.12 5.34
517 3 32.04 7.12 3.56
518 1 33.82 8.9 3.56
519 3 32.04 8.9 5.34
520 2 33.82 7.12 5.34
521 2 0.0 10.68 3.56
522 2 1.78 12.459999999999999 3.56
523 2 0.0 12.459999999999999 5.34
524 2 1.78 10.68 5.34
525 2 3.56 10.68 3.56
526 5 5.34 12.459999999999999 3.56
527 4 3.56 12.459999999999999 5.34
528 2 5.34 10.68 5.34
529 1 7.12 10.68 3.56
530 1 8.9 12.459999999999999 3.56
531 2 7.12 12.459999999999999 5.34
532 2 8.9 10.68 5.34
533 2 10.68 10.68 3.56
534 2 12.459999999999999 12.459999999999999 3.56
535 5 10.68 12.459999999999999 5.34
536 2 12.459999999999999 10.68 5.34
537 4 14.24 10.68 3.56
538 2 16.02 12.459999999999999 3.56
539 4 14.24 12.459999999999999 5.34
540 2 16.02 10.68 5.34
541 3 17.8 10.68 3.56
542 5 19.580000000000002 12.459999999999999 3.56
543 2 17.8 12.459999999999999 5.34
544 4 19.580000000000002 10.68 5.34
545 2 21.36 10.68 3.56
546 4 23.14 12.459999999999999 3.56
547 2 21.36 12.459999999999999 5.34
548 3 23.14 10.68 5.34
549 1 24.92 10.68 3.56
550 4 26.700000000000003 12.459999999999999 3.56
551 5 24.92 12.459999999999999 5.34
552 2 26.700000000000003 10.68 5.34
553 2 28.48 10.68 3.56
554 3 30.26 12.459999999999999 3.56
555 3 28.48 12.459999999999999 5.34
556 1 30.26 10.68 5.34
557 2 32.04 10.68 3.56
558 2 33.82 12.459999999999999 3.56
559 2 32.04 12.459999999999999 5.34
560 2 33.82 10.68 5.34
561 1 0.0 14.24 3.56
562 5 1.78 16.02 3.56
563 1 0.0 16.02 5.34
564 2 1.78 14.24 5.34
565 1 3.56 14.24 3.56
566 3 5.34 16.02 3.56
567 5 3.56 16.02 5.34
568 1 5.34 14.24 5.34
569 2 7.12 14.24 3.56
570 2 8.9 16.02 3.56
571 5 7.12 16.02 5.34
572 3 8.9 14.24 5.34
573 2 10.68 14.24 3.56
574 2 12.459999999999999 16.02 3.56
575 2 10.68 16.02 5.34
576 2 12.459999999999999 14.24 5.34
577 1 14.24 14.24 3.56
578 4 16.02 16.02 3.56
579 1 14.24 16.02 5.34
580 5 16.02 14.24 5.34
581 2 17.8 14.24 3.56
582 3 19.580000000000002 16.02 3.56
583 5 17.8 16.02 5.34
584 4 19.580000000000002 14.24 5.34
585 2 21.36 14.24 3.56
586 2 23.14 16.02 3.56
587 5 21.36 16.02 5.34
588 1 23.14 14.24 5.34
589 2 24.92 14.24 3.56
590 4 26.700000000000003 16.02 3.56
591 2 24.92 16.02 5.34
592 3 26.700000000000003 14.24 5.34
593 5 28.48 14.24 3.56
594 2 30.26 16.02 3.56
595 2 28.48 16.02 5.34
596 3 30.26 14.24 5.34
597 4 32.04 14.24 3.56
598 1 33.82 16.02 3.56
599 2 32.04 16.02 5.34
600 2 33.82 14.24 5.34
601 3 0.0 17.8 3.56
602 2 1.78 19.580000000000002 3.56
603 4 0.0 19.580000000000002 5.34
604 5 1.78 17.8 5.34
605 1 3.56 17.8 3.56
606 2 5.34 19.580000000000002 3.56
607 4 3.56 19.580000000000002 5.34
608 2 5.34 17.8 5.34
609 2 7.12 17.8 3.56
610 2 8.9 19.580000000000002 3.56
611 4 7.12 19.580000000000002 5.34
612 2 8.9 17.8 5.34
613 2 10.68 17.8 3.56
614 2 12.459999999999999 19.580000000000002 3.56
615 4 10.68 19.580000000000002 5.34
616 2 12.459999999999999 17.8 5.34
617 4 14.24 17.8 3.56
618 5 16.02 19.580000000000002 3.56
619 2 14.24 19.580000000000002 5.34
620 3 16.02 17.8 5.34
621 2 17.8 17.8 3.56
622 3 19.580000000000002 19.580000000000002 3.56
623 2 17.8 19.580000000000002 5.34
624 3 19.580000000000002 17.8 5.34
625 2 21.36 17.8 3.56
626 2 23.14 19.580000000000002 3.56
627 3 21.36 19.580000000000002 5.34
628 4 23.14 17.8 5.34
629 3 24.92 17.8 3.56
630 4 26.700000000000003 19.580000000000002 3.56
631 4 24.92 19.580000000000002 5.34
632 1 26.700000000000003 17.8 5.34
633 5 28.48 17.8 3.56
634 2 30.26 19.580000000000002 3.56
635 2 28.48 19.580000000000002 5.34
636 2 30.26 17.8 5.34
637 2 32.04 17.8 3.56
638 2 33.82 19.580000000000002 3.56
639 3 32.04 19.580000000000002 5.34
640 4 33.82 17.8 5.34
641 2 0.0 21.36 3.56
642 2 1.78 23.14 3.56
643 2 0.0 23.14 5.34
644 2 1.78 21.36 5.34
645 4 3.56 21.36 3.56
646 1 5.34 23.14 3.56
647 2 3.56 23.14 5.34
648 1 5.34 21.36 5.34
649 4 7.12 21.36 3.56
650 4 8.9 23.14 3.56
651 5 7.12 23.14 5.34
652 4 8.9 21.36 5.34
653 2 10.68 21.36 3.56
654 2 12.459999999999999 23.14 3.56
655 5 10.68 23.14 5.34
656 2 12.459999999999999 21.36 5.34
657 3 14.24 21.36 3.56
658 2 16.02 23.14 3.56
659 2 14.24 23.14 5.34
660 2 16.02 21.36 5.34
661 4 17.8 21.36 3.56
662 2 19.580000000000002 23.14 3.56
663 2 17.8 23.14 5.34
664 5 19.580000000000002 21.36 5.34
665 4 21.36 21.36 3.56
666 5 23.14 23.14 3.56
667 5 21.36 23.14 5.34
668 2 23.14 21.36 5.34
669 2 24.92 21.36 3.56
670 2 26.700000000000003 23.14 3.56
671 2 24.92 23.14 5.34
672 4 26.700000000000003 21.36 5.34
673 4 28.48 21.36 3.56
674 2 30.26 23.14 3.56
675 1 28.48 23.14 5.34
676 4 30.26 21.36 5.34
677 5 32.04 21.36 3.56
678 2 33.82 23.14 3.56
679 4 32.04 23.14 5.34
680 2 33.82 21.36 5.34
681 2 0.0 24.92 3.56
682 2 1.78 26.700000000000003 3.56
683 5 0.0 26.700000000000003 5.34
684 2 1.78 24.92 5.34
685 3 3.56 24.92 3.56
686 2 5.34 26.700000000000003 3.56
687 2 3.56 26.700000000000003 5.34
688 2 5.34 24.92 5.34
689 4 7.12 24.92 3.56
690 3 8.9 26.700000000000003 3.56
691 2 7.12 26.700000000000003 5.34
692 2 8.9 24.92 5.34
693 3 10.68 24.92 3.56
694 1 12.459999999999999 26.700000000000003 3.56
695 2 10.68 26.700000000000003 5.34
696 2 12.459999999999999 24.92 5.34
697 2 14.24 24.92 3.56
698 2 16.02 26.700000000000003 3.56
699 3 14.24 26.700000000000003 5.34
700 3 16.02 24.92 5.34
701 4 17.8 24.92 3.56
702 2 19.580000000000002 26.700000000000003 3.56
703 2 17.8 26.700000000000003 5.34
704 4 19.580000000000002 24.92 5.34
705 2 21.36 24.92 3.56
706 2 23.14 26.700000000000003 3.56
707 1 21.36 26.700000000000003 5.34
708 4 23.14 24.92 5.34
709 3 24.92 24.92 3.56
710 1 26.700000000000003 26.700000000000003 3.56
711 2 24.92 26.700000000000003 5.34
712 1 26.700000000000003 24.92 5.34
713 2 28.48 24.92 3.56
714 2 30.26 26.700000000000003 3.56
715 2 28.48 26.700000000000003 5.34
716 1 30.26 24.92 5.34
717 3 32.04 24.92 3.56
718 5 33.82 26.700000000000003 3.56
719 3 32.04 26.700000000000003 5.34
720 4 33.82 24.92 5.34
721 1 0.0 28.48 3.56
722 2 1.78 30.26 3.56
723 5 0.0 30.26 5.34
724 5 1.78 28.48 5.34
725 2 3.56 28.48 3.56
726 4 5.34 30.26 3.56
727 2 3.56 30.26 5.34
728 2 5.34 28.48 5.34
729 2 7.12 28.48 3.56
730 4 8.9 30.26 3.56
731 2 7.12 30.26 5.34
732 2 8.9 28.48 5.34
733 2 10.68 28.48 3.56
734 5 12.459999999999999 30.26 3.56
735 2 10.68 30.26 5.34
736 2 12.459999999999999 28.48 5.34
737 2 14.24 28.48 3.56
738 4 16.02 30.26 3.56
739 4 14.24 30.26 5.34
740 4 16.02 28.48 5.34
741 2 17.8 28.48 3.56
742 2 19.580000000000002 30.26 3.56
743 4 17.8 30.26 5.34
744 4 19.580000000000002 28.48 5.34
745 2 21.36 28.48 3.56
746 2 23.14 30.26 3.56
747 4 21.36 30.26 5.34
748 2 23.14 28.48 5.34
749 2 24.92 28.48 3.56
750 5 26.700000000000003 30.26 3.56
751 2 24.92 30.26 5.34
752 2 26.700000000000003 28.48 5.34
753 2 28.48 28.48 3.56
754 1 30.26 30.26 3.56
755 4 28.48 30.26 5.34
756 2 30.26 28.48 5.34
757 2 32.04 28.48 3.56
758 1 33.82 30.26 3.56
759 2 32.04 30.26 5.34
760 2 33.82 28.48 5.34
761 4 0.0 32.04 3.56
762 4 1.78 33.82 3.56
763 2 0.0 33.82 5.34
764 4 1.78 32.04 5.34
765 2 3.56 32.04 3.56
766 2 5.34 33.82 3.56
767 2 3.56 33.82 5.34
768 2 5.34 32.04 5.34
769 4 7.12 32.04 3.56
770 2 8.9 33.82 3.56
771 3 7.12 33.82 5.34
772 3 8.9 32.04 5.34
773 1 10.68 32.04 3.56
774 4 12.459999999999999 33.82 3.56
775 5 10.68 33.82 5.34
776 5 12.459999999999999 32.04 5.34
777 4 14.24 32.04 3.56
778 4 16.02 33.82 3.56
779 2 14.24 33.82 5.34
780 5 16.02 32.04 5.34
781 4 17.8 32.04 3.56
782 4 19.580000000000002 33.82 3.56
783 3 17.8 33.82 5.34
784 2 19.580000000000002 32.04 5.34
785 4 21.36 32.04 3.56
786 4 23.14 33.82 3.56
787 2 21.36 33.82 5.34
788 2 23.14 32.04 5.34
789 2 24.92 32.04 3.56
790 5 26.700000000000003 33.82 3.56
791 1 24.92 33.82 5.34
792 1 26.700000000000003 32.04 5.34
793 2 28.48 32.04 3.56
794 2 30.26 33.82 3.56
795 3 28.48 33.82 5.34
796 4 30.26 32.04 5.34
797 1 32.04 32.04 3.56
798 2 33.82 33.82 3.56
799 2 32.04 33.82 5.34
800 2 33.82 32.04 5.34
801 2 0.0 0.0 7.12
802 2 1.78 1.78 7.12
803 3 0.0 1.78 8.9
804 1 1.78 0.0 8.9
805 5 3.56 0.0 7.12
806 2 5.34 1.78 7.12
807 2 3.56 1.78 8.9
808 2 5.34 0.0 8.9
809 4 7.12 0.0 7.12
810 4 8.9 1.78 7.12
811 4 7.12 1.78 8.9
812 3 8.9 0.0 8.9
813 2 10.68 0.0 7.12
814 5 12.459999999999999 1.78 7.12
815 5 10.68 1.78 8.9
816 2 12.459999999999999 0.0 8.9
817 2 14.24 0.0 7.12
818 5 16.02 1.78 7.12
819 1 14.24 1.78 8.9
820 3 16.02 0.0 8.9
821 5 17.8 0.0 7.12
822 2 19.580000000000002 1.78 7.12
823 2 17.8 1.78 8.9
824 2 19.580000000000002 0.0 8.9
825 4 21.36 0.0 7.12
826 3 23.14 1.78 7.12
827 2 21.36 1.78 8.9
828 2 23.14 0.0 8.9
829 2 24.92 0.0 7.12
830 3 26.700000000000003 1.78 7.12
831 2 24.92 1.78 8.9
832 2 26.700000000000003 0.0 8.9
833 3 28.48 0.0 7.12
834 3 30.26 1.78 7.12
835 2 28.48 1.78 8.9
836 4 30.26 0.0 8.9
837 2 32.04 0.0 7.12
838 2 33.82 1.78 7.12
839 5 32.04 1.78 8.9
840 5 33.82 0.0 8.9
841 2 0.0 3.56 7.12
842 4 1.78 5.34 7.12
843 2 0.0 5.34 8.9
844 2 1.78 3.56 8.9
845 4 3.56 3.56 7.12
846 1 5.34 5.34 7.12
847 5 3.56 5.34 8.9
848 4 5.34 3.56 8.9
849 2 7.12 3.56 7.12
850 5 8.9 5.34 7.12
851 1 7.12 5.34 8.9
852 2 8.9 3.56 8.9
853 4 10.68 3.56 7.12
854 1 12.459999999999999 5.34 7.12
855 2 10.68 5.34 8.9
856 2 12.459999999999999 3.56 8.9
857 2 14.24 3.56 7.12
858 5 16.02 5.34 7.12
859 5 14.24 5.34 8.9
860 3 16.02 3.56 8.9
861 3 17.8 3.56 7.12
862 3 19.580000000000002 5.34 7.12
863 2 17.8 5.34 8.9
864 1 19.580000000000002 3.56 8.9
865 2 21.36 3.56 7.12
866 2 23.14 5.34 7.12
867 1 21.36 5.34 8.9
868 5 23.14 3.56 8.9
869 1 24.92 3.56 7.12
870 4 26.700000000000003 5.34 7.12
871 4 24.92 5.34 8.9
872 4 26.700000000000003 3.56 8.9
873 5 28.48 3.56 7.12
874 2 30.26 5.34 7.12
875 2 28.48 5.34 8.9
876 3 30.26 3.56 8.9
877 1 32.04 3.56 7.12
878 2 33.82 5.34 7.12
879 1 32.04 5.34 8.9
880 3 33.82 3.56 8.9
881 2 0.0 7.12 7.12
882 5 1.78 8.9 7.12
883 4 0.0 8.9 8.9
884 5 1.78 7.12 8.9
885 4 3.56 7.12 7.12
886 2 5.34 8.9 7.12
887 5 3.56 8.9 8.9
888 2 5.34 7.12 8.9
889 5 7.12 7.12 7.12
890 5 8.9 8.9 7.12
891 3 7.12 8.9 8.9
892 1 8.9 7.12 8.9
893 2 10.68 7.12 7.12
894 2 12.459999999999999 8.9 7.12
895 5 10.68 8.9 8.9
896 2 12.459999999999999 7.12 8.9
897 2 14.24 7.12 7.12
898 2 16.02 8.9 7.12
899 5 14.24 8.9 8.9
900 3 16.02 7.12 8.9
901 5 17.8 7.12 7.12
902 2 19.580000000000002 8.9 7.12
903 2 17.8 8.9 8.9
904 2 19.580000000000002 7.12 8.9
905 2 21.36 7.12 7.12
906 4 23.14 8.9 7.12
907 1 21.36 8.9 8.9
908 2 23.14 7.12 8.9
909 1 24.92 7.12 7.12
910 2 26.700000000000003 8.9 7.12
911 2 24.92 8.9 8.9
912 4 26.700000000000003 7.12 8.9
913 3 28.48 7.12 7.12
914 2 30.26 8.9 7.12
915 5 28.48 8.9 8.9
916 2 30.26 7.12 8.9
917 5 32.04 7.12 7.12
918 2 33.82 8.9 7.12
919 2 32.04 8.9 8.9
920 3 33.82 7.12 8.9
921 3 0.0 10.68 7.12
922 2 1.78 12.459999999999999 7.12
923 4 0.0 12.459999999999999 8.9
924 2 1.78 10.68 8.9
925 2 3.56 10.68 7.12
926 3 5.34 12.459999999999999 7.12
927 3 3.56 12.459999999999999 8.9
928 2 5.34 10.68 8.9
929 5 7.12 10.68 7.12
930 2 8.9 12.459999999999999 7.12
931 2 7.12 12.459999999999999 8.9
932 4 8.9 10.68 8.9
933 3 10.68 10.68 7.12
934 2 12.459999999999999 12.459999999999999 7.12
935 3 10.68 12.459999999999999 8.9
936 4 12.459999999999999 10.68 8.9
937 2 14.24 10.68 7.12
938 2 16.02 12.459999999999999 7.12
939 2 14.24 12.459999999999999 8.9
940 2 16.02 10.68 8.9
941 2 17.8 10.68 7.12
942 2 19.580000000000002 12.459999999999999 7.12
943 3 17.8 12.459999999999999 8.9
944 1 19.580000000000002 10.68 8.9
945 4 21.36 10.68 7.12
946 2 23.14 12.459999999999999 7.12
947 2 21.36 12.459999999999999 8.9
948 3 23.14 10.68 8.9
949 2 24.92 10.68 7.12
950 2 26.700000000000003 12.459999999999999 7.12
951 2 24.92 12.459999999999999 8.9
952 2 26.700000000000003 10.68 8.9
953 2 28.48 10.68 7.12
954 4 30.26 12.459999999999999 7.12
955 2 28.48 12.459999999999999 8.9
956 1 30.26 10.68 8.9
957 2 32.04 10.68 7.12
958 2 33.82 12.459999999999999 7.12
959 4 32.04 12.459999999999999 8.9
960 2 33.82 10.68 8.9
961 2 0.0 14.24 7.12
962 1 1.78 16.02 7.12
963 1 0.0 16.02 8.9
964 3 1.78 14.24 8.9
965 4 3.56 14.24 7.12
966 3 5.34 16.02 7.12
967 2 3.56 16.02 8.9
968 4 5.34 14.24 8.9
969 2 7.12 14.24 7.12
970 4 8.9 16.02 7.12
971 2 7.12 16.02 8.9
972 2 8.9 14.24 8.9
973 5 10.68 14.24 7.12
974 3 12.459999999999999 16.02 7.12
975 2 10.68 16.02 8.9
976 3 12.459999999999999 14.24 8.9
977 2 14.24 14.24 7.12
978 2 16.02 16.02 7.12
979 2 14.24 16.02 8.9
980 2 16.02 14.24 8.9
981 1 17.8 14.24 7.12
982 2 19.580000000000002 16.02 7.12
983 3 17.8 16.02 8.9
984 1 19.580000000000002 14.24 8.9
985 2 21.36 14.24 7.12
986 2 23.14 16.02 7.12
987 3 21.36 16.02 8.9
988 2 23.14 14.24 8.9
989 2 24.92 14.24 7.12
990 1 26.700000000000003 16.02 7.12
991 5 24.92 16.02 8.9
992 2 26.700000000000003 14.24 8.9
993 2 28.48 14.24 7.12
994 2 30.26 16.02 7.12
995 4 28.48 16.02 8.9
996 2 30.26 14.24 8.9
997 2 32.04 14.24 7.12
998 5 33.82 16.02 7.12
999 2 32.04 16.02 8.9
1000 2 33.82 14.24 8.9
1001 2 0.0 17.8 7.12
1002 2 1.78 19.580000000000002 7.12
1003 2 0.0 19.580000000000002 8.9
1004 2 1.78 17.8 8.9
1005 3 3.56 17.8 7.12
1006 2 5.34 19.580000000000002 7.12
1007 2 3.56 19.580000000000002 8.9
1008 2 5.34 17.8 8.9
1009 5 7.12 17.8 7.12
1010 1 8.9 19.580000000000002 7.12
1011 5 7.12 19.580000000000002 8.9
1012 2 8.9 17.8 8.9
1013 2 10.68 17.8 7.12
1014 4 12.459999999999999 19.580000000000002 7.12
1015 1 10.68 19.580000000000002 8.9
1016 2 12.459999999999999 17.8 8.9
1017 2 14.24 17.8 7.12
1018 1 16.02 19.580000000000002 7.12
1019 3 14.24 19.580000000000002 8.9
1020 2 16.02 17.8 8.9
1021 3 17.8 17.8 7.12
1022 4 19.580000000000002 19.580000000000002 7.12
1023 2 17.8 19.580000000000002 8.9
1024 2 19.580000000000002 17.8 8.9
1025 4 21.36 17.8 7.12
1026 2 23.14 19.580000000000002 7.12
1027 2 21.36 19.580000000000002 8.9
1028 2 23.14 17.8 8.9
1029 2 24.92 17.8 7.12
1030 2 26.700000000000003 19.580000000000002 7.12
1031 3 24.92 19.580000000000002 8.9
1032 5 26.700000000000003 17.8 8.9
1033 2 28.48 17.8 7.12
1034 4 30.26 19.580000000000002 7.12
1035 5 28.48 19.580000000000002 8.9
1036 2 30.26 17.8 8.9
1037 2 32.04 17.8 7.12
1038 2 33.82 19.580000000000002 7.12
1039 2 32.04 19.580000000000002 8.9
1040 2 33.82 17.8 8.9
1041 1 0.0 21.36 7.12
1042 4 1.78 23.14 7.12
1043 2 0.0 23.14 8.9
1044 1 1.78 21.36 8.9
1045 3 3.56 21.36 7.12
1046 4 5.34 23.14 7.12
1047 2 3.56 23.14 8.9
1048 5 5.34 21.36 8.9
1049 2 7.12 21.36 7.12
1050 2 8.9 23.14 7.12
1051 4 7.12 23.14 8.9
1052 4 8.9 21.36 8.9
1053 5 10.68 21.36 7.12
1054 2 12.459999999999999 23.14 7.12
1055 1 10.68 23.14 8.9
1056 2 12.459999999999999 21.36 8.9
1057 4 14.24 21.36 7.12
1058 5 16.02 23.14 7.12
1059 3 14.24 23.14 8.9
1060 4 16.02 21.36 8.9
1061 1 17.8 21.36 7.12
1062 4 19.580000000000002 23.14 7.12
1063 2 17.8 23.14 8.9
1064 2 19.580000000000002 21.36 8.9
1065 5 21.36 21.36 7.12
1066 4 23.14 23.14 7.12
1067 4 21.36 23.14 8.9
1068 3 23.14 21.36 8.9
1069 1 24.92 21.36 7.12
1070 4 26.700000000000003 23.14 7.12
1071 4 24.92 23.14 8.9
1072 4 26.700000000000003 21.36 8.9
1073 2 28.48 21.36 7.12
1074 3 30.26 23.14 7.12
1075 2 28.48 23.14 8.9
1076 4 30.26 21.36 8.9
1077 2 32.04 21.36 7.12
1078 1 33.82 23.14 7.12
1079 2 32.04 23.14 8.9
1080 3 33.82 21.36 8.9
1081 4 0.0 24.92 7.12
1082 4 1.78 26.700000000000003 7.12
1083 2 0.0 26.700000000000003 8.9
1084 2 1.78 24.92 8.9
1085 4 3.56 24.92 7.12
1086 2 5.34 26.700000000000003 7.12
1087 2 3.56 26.700000000000003 8.9
1088 2 5.34 24.92 8.9
1089 3 7.12 24.92 7.12
1090 3 8.9 26.700000000000003 7.12
1091 1 7.12 26.700000000000003 8.9
1092 4 8.9 24.92 8.9
1093 2 10.68 24.92 7.12
1094 2 12.459999999999999 26.700000000000003 7.12
1095 4 10.68 26.700000000000003 8.9
1096 2 12.459999999999999 24.92 8.9
1097 2 14.24 24.92 7.12
1098 4 16.02 26.700000000000003 7.12
1099 3 14.24 26.700000000000003 8.9
1100 2 16.02 24.92 8.9
1101 2 17.8 24.92 7.12
1102 2 19.580000000000002 26.700000000000003 7.12
1103 1 17.8 26.700000000000003 8.9
1104 5 19.580000000000002 24.92 8.9
1105 2 21.36 24.92 7.12
1106 5 23.14 26.700000000000003 7.12
1107 1 21.36 26.700000000000003 8.9
1108 2 23.14 24.92 8.9
1109 2 24.92 24.92 7.12
1110 1 26.700000000000003 26.700000000000003 7.12
1111 4 24.92 26.700000000000003 8.9
1112 2 26.700000000000003 24.92 8.9
1113 2 28.48 24.92 7.12
1114 2 30.26 26.700000000000003 7.12
1115 2 28.48 26.700000000000003 8.9
1116 4 30.26 24.92 8.9
1117 1 32.04 24.92 7.12
1118 1 33.82 26.700000000000003 7.12
1119 2 32.04 26.700000000000003 8.9
1120 2 33.82 24.92 8.9
1121 2 0.0 28.48 7.12
1122 2 1.78 30.26 7.12
1123 2 0.0 30.26 8.9
1124 1 1.78 28.48 8.9
1125 5 3.56 28.48 7.12
1126 4 5.34 30.26 7.12
1127 2 3.56 30.26 8.9
1128 5 5.34 28.48 8.9
1129 5 7.12 28.48 7.12
1130 4 8.9 30.26 7.12
1131 4 7.12 30.26 8.9
1132 3 8.9 28.48 8.9
1133 2 10.68 28.48 7.12
1134 2 12.459999999999999 30.26 7.12
1135 3 10.68 30.26 8.9
1136 1 12.459999999999999 28.48 8.9
1137 4 14.24 28.48 7.12
1138 2 16.02 30.26 7.12
1139 3 14.24 30.26 8.9
1140 2 16.02 28.48 8.9
1141 2 17.8 28.48 7.12
1142 4 19.580000000000002 30.26 7.12
1143 3 17.8 30.26 8.9
1144 1 19.580000000000002 28.48 8.9
1145 1 21.36 28.48 7.12
1146 2 23.14 30.26 7.12
1147 3 21.36 30.26 8.9
1148 5 23.14 28.48 8.9
1149 4 24.92 28.48 7.12
1150 2 26.700000000000003 30.26 7.12
1151 2 24.92 30.26 8.9
1152 1 26.700000000000003 28.48 8.9
1153 1 28.48 28.48 7.12
1154 2 30.26 30.26 7.12
1155 4 28.48 30.26 8.9
1156 5 30.26 28.48 8.9