LAMMPS data file for FCC alloy

256 atoms

5 atom types

0.0 14.24 xlo xhi
0.0 14.24 ylo yhi
0.0 14.24 zlo zhi

Masses

1 55.845
2 58.6934
3 51.9961
4 58.933195
5 26.9815385

Atoms

1 4 0.0 0.0 0.0
2 1 1.78 1.78 0.0
3 1 0.0 1.78 1.78
4 5 1.78 0.0 1.78
5 5 3.56 0.0 0.0
6 2 5.34 1.78 0.0
7 2 3.56 1.78 1.78
8 2 5.34 0.0 1.78
9 1 7.12 0.0 0.0
10 5 8.9 1.78 0.0
11 4 7.12 1.78 1.78
12 1 8.9 0.0 1.78
13 5 10.68 0.0 0.0
14 4 12.459999999999999 1.78 0.0
15 1 10.68 1.78 1.78
16 2 12.459999999999999 0.0 1.78
17 1 0.0 3.56 0.0
18 2 1.78 5.34 0.0
19 2 0.0 5.34 1.78
20 2 1.78 3.56 1.78
21 2 3.56 3.56 0.0
22 4 5.34 5.34 0.0
23 1 3.56 5.34 1.78
24 2 5.34 3.56 1.78
25 1 7.12 3.56 0.0
26 2 8.9 5.34 0.0
27 2 7.12 5.34 1.78
28 2 8.9 3.56 1.78
29 2 10.68 3.56 0.0
30 5 12.459999999999999 5.34 0.0
31 1 10.68 5.34 1.78
32 1 12.459999999999999 3.56 1.78
33 5 0.0 7.12 0.0
34 1 1.78 8.9 0.0
35 4 0.0 8.9 1.78
36 2 1.78 7.12 1.78
37 5 3.56 7.12 0.0
38 4 5.34 8.9 0.0
39 5 3.56 8.9 1.78
40 1 5.34 7.12 1.78
41 2 7.12 7.12 0.0
42 2 8.9 8.9 0.0
43 1 7.12 8.9 1.78
44 2 8.9 7.12 1.78
45 2 10.68 7.12 0.0
46 2 12.459999999999999 8.9 0.0
47 1 10.68 8.9 1.78
48 4 12.459999999999999 7.12 1.78
49 2 0.0 10.68 0.0
50 2 1.78 12.459999999999999 0.0
51 2 0.0 12.459999999999999 1.78
52 2 1.78 10.68 1.78
53 2 3.56 10.68 0.0
54 5 5.34 12.459999999999999 0.0
55 1 3.56 12.459999999999999 1.78
56 1 5.34 10.68 1.78
57 4 7.12 10.68 0.0
58 4 8.9 12.459999999999999 0.0
59 4 7.12 12.459999999999999 1.78
60 1 8.9 10.68 1.78
61 2 10.68 10.68 0.0
62 2 12.459999999999999 12.459999999999999 0.0
63 2 10.68 12.459999999999999 1.78
64 1 12.459999999999999 10.68 1.78
65 2 0.0 0.0 3.56
66 2 1.78 1.78 3.56
67 5 0.0 1.78 5.34
68 2 1.78 0.0 5.34
69 1 3.56 0.0 3.56
70 2 5.34 1.78 3.56
71 2 3.56 1.78 5.34
72 1 5.34 0.0 5.34
73 2 7.12 0.0 3.56
74 5 8.9 1.78 3.56
75 4 7.12 1.78 5.34
76 2 8.9 0.0 5.34
77 2 10.68 0.0 3.56
78 1 12.459999999999999 1.78 3.56
79 4 10.68 1.78 5.34
80 1 12.459999999999999 0.0 5.34
81 2 0.0 3.56 3.56
82 5 1.78 5.34 3.56
83 4 0.0 5.34 5.34
84 5 1.78 3.56 5.34
85 5 3.56 3.56 3.56
86 2 5.34 5.34 3.56
87 5 3.56 5.34 5.34
88 4 5.34 3.56 5.34
89 4 7.12 3.56 3.56
90 2 8.9 5.34 3.56
91 1 7.12 5.34 5.34
92 4 8.9 3.56 5.34
93 2 10.68 3.56 3.56
94 5 12.459999999999999 5.34 3.56
95 1 10.68 5.34 5.34
96 2 12.459999999999999 3.56 5.34
97 1 0.0 7.12 3.56
98 2 1.78 8.9 3.56
99 5 0.0 8.9 5.34
100 2 1.78 7.12 5.34
101 4 3.56 7.12 3.56
102 5 5.34 8.9 3.56
103 2 3.56 8.9 5.34
104 5 5.34 7.12 5.34
105 5 7.12 7.12 3.56
106 1 8.9 8.9 3.56
107 2 7.12 8.9 5.34
108 4 8.9 7.12 5.34
109 2 10.68 7.12 3.56
110 1 12.459999999999999 8.9 3.56
111 2 10.68 8.9 5.34
112 5 12.459999999999999 7.12 5.34
113 2 0.0 10.68 3.56
114 2 1.78 12.459999999999999 3.56
115 2 0.0 12.459999999999999 5.34
116 2 1.78 10.68 5.34
117 2 3.56 10.68 3.56
118 1 5.34 12.459999999999999 3.56
119 1 3.56 12.459999999999999 5.34
120 2 5.34 10.68 5.34
121 5 7.12 10.68 3.56
122 1 8.9 12.459999999999999 3.56
123 4 7.12 12.459999999999999 5.34
124 5 8.9 10.68 5.34
125 2 10.68 10.68 3.56
126 2 12.459999999999999 12.459999999999999 3.56
127 1 10.68 12.459999999999999 5.34
128 5 12.459999999999999 10.68 5.34
129 5 0.0 0.0 7.12
130 1 1.78 1.78 7.12
131 2 0.0 1.78 8.9
132 5 1.78 0.0 8.9
133 5 3.56 0.0 7.12
134 2 5.34 1.78 7.12
135 2 3.56 1.78 8.9
136 2 5.34 0.0 8.9
137 2 7.12 0.0 7.12
138 5 8.9 1.78 7.12
139 2 7.12 1.78 8.9
140 5 8.9 0.0 8.9
141 2 10.68 0.0 7.12
142 1 12.459999999999999 1.78 7.12
143 3 10.68 1.78 8.9
144 1 12.459999999999999 0.0 8.9
145 2 0.0 3.56 7.12
146 5 1.78 5.34 7.12
147 2 0.0 5.34 8.9
148 2 1.78 3.56 8.9
149 1 3.56 3.56 7.12
150 2 5.34 5.34 7.12
151 5 3.56 5.34 8.9
152 1 5.34 3.56 8.9
153 2 7.12 3.56 7.12
154 2 8.9 5.34 7.12
155 1 7.12 5.34 8.9
156 2 8.9 3.56 8.9
157 2 10.68 3.56 7.12
158 1 12.459999999999999 5.34 7.12
159 2 10.68 5.34 8.9
160 2 12.459999999999999 3.56 8.9
161 2 0.0 7.12 7.12
162 5 1.78 8.9 7.12
163 3 0.0 8.9 8.9
164 2 1.78 7.12 8.9
165 5 3.56 7.12 7.12
166 5 5.34 8.9 7.12
167 2 3.56 8.9 8.9
168 2 5.34 7.12 8.9
169 5 7.12 7.12 7.12
170 1 8.9 8.9 7.12
171 2 7.12 8.9 8.9
172 5 8.9 7.12 8.9
173 5 10.68 7.12 7.12
174 1 12.459999999999999 8.9 7.12
175 2 10.68 8.9 8.9
176 5 12.459999999999999 7.12 8.9
177 5 0.0 10.68 7.12
178 1 1.78 12.459999999999999 7.12
179 1 0.0 12.459999999999999 8.9
180 2 1.78 10.68 8.9
181 5 3.56 10.68 7.12
182 1 5.34 12.459999999999999 7.12
183 2 3.56 12.459999999999999 8.9
184 2 5.34 10.68 8.9
185 5 7.12 10.68 7.12
186 2 8.9 12.459999999999999 7.12
187 4 7.12 12.459999999999999 8.9
188 2 8.9 10.68 8.9
189 1 10.68 10.68 7.12
190 1 12.459999999999999 12.459999999999999 7.12
191 2 10.68 12.459999999999999 8.9
192 2 12.459999999999999 10.68 8.9
193 2 0.0 0.0 10.68
194 1 1.78 1.78 10.68
195 1 0.0 1.78 12.459999999999999
196 2 1.78 0.0 12.459999999999999
197 2 3.56 0.0 10.68
198 5 5.34 1.78 10.68
199 5 3.56 1.78 12.459999999999999
200 4 5.34 0.0 12.459999999999999
201 5 7.12 0.0 10.68
202 5 8.9 1.78 10.68
203 2 7.12 1.78 12.459999999999999
204 3 8.9 0.0 12.459999999999999
205 1 10.68 0.0 10.68
206 4 12.459999999999999 1.78 10.68
207 1 10.68 1.78 12.459999999999999
208 4 12.459999999999999 0.0 12.459999999999999
209 1 0.0 3.56 10.68
210 2 1.78 5.34 10.68
211 2 0.0 5.34 12.459999999999999
212 2 1.78 3.56 12.459999999999999
213 5 3.56 3.56 10.68
214 2 5.34 5.34 10.68
215 5 3.56 5.34 12.459999999999999
216 1 5.34 3.56 12.459999999999999
217 5 7.12 3.56 10.68
218 3 8.9 5.34 10.68
219 1 7.12 5.34 12.459999999999999
220 2 8.9 3.56 12.459999999999999
221 2 10.68 3.56 10.68
222 2 12.459999999999999 5.34 10.68
223 1 10.68 5.34 12.459999999999999
224 2 12.459999999999999 3.56 12.459999999999999
225 1 0.0 7.12 10.68
226 1 1.78 8.9 10.68
227 2 0.0 8.9 12.459999999999999
228 2 1.78 7.12 12.459999999999999
229 4 3.56 7.12 10.68
230 1 5.34 8.9 10.68
231 2 3.56 8.9 12.459999999999999
232 2 5.34 7.12 12.459999999999999
233 1 7.12 7.12 10.68
234 1 8.9 8.9 10.68
235 4 7.12 8.9 12.459999999999999
236 5 8.9 7.12 12.459999999999999
237 2 10.68 7.12 10.68
238 1 12.459999999999999 8.9 10.68
239 4 10.68 8.9 12.459999999999999
240 5 12.459999999999999 7.12 12.459999999999999
241 2 0.0 10.68 10.68
242 2 1.78 12.459999999999999 10.68
243 1 0.0 12.459999999999999 12.459999999999999
244 1 1.78 10.68 12.459999999999999
245 2 3.56 10.68 10.68
246 2 5.34 12.459999999999999 10.68
247 5 3.56 12.459999999999999 12.459999999999999
248 2 5.34 10.68 12.459999999999999
249 2 7.12 10.68 10.68
250 1 8.9 12.459999999999999 10.68
251 1 7.12 12.459999999999999 12.459999999999999
252 5 8.9 10.68 12.459999999999999
253 2 10.68 10.68 10.68
254 2 12.459999999999999 12.459999999999999 10.68
255 2 10.68 12.459999999999999 12.459999999999999
256 2 12.459999999999999 10.68 12.459999999999999
