ITEM: TIMESTEP
50000
ITEM: NUMBER OF ATOMS
4000
ITEM: BOX BOUNDS xy xz yz pp pp pp
-3.7498447400928114e-02 3.5639655150905170e+01 7.8743436399180983e-04
-3.9269743023925940e-02 3.5646224281405424e+01 1.3692691436308594e-03
-4.2615283022783501e-02 3.5642615283018273e+01 6.9545383858982245e-03
ITEM: ATOMS id type xs ys zs
1 2 0.998358 0.999478 0.999552
2 1 0.0480226 0.0505035 0.001004
3 2 0.998007 0.0499648 0.0500647
4 5 0.0489053 0.999484 0.0506377
5 2 0.0985387 0.00100662 0.000746752
6 2 0.149421 0.0501753 0.00283227
7 2 0.0995478 0.0504872 0.0505601
8 3 0.149186 0.999689 0.0500956
9 2 0.200536 0.000185713 0.00166004
10 4 0.250866 0.0500156 0.000799734
11 1 0.199896 0.0497004 0.0502491
12 3 0.249391 0.999999 0.0498212
13 4 0.30002 0.999795 0.00161628
14 2 0.349689 0.049437 0.00160107
15 2 0.300143 0.0501721 0.0497345
16 2 0.351047 0.999758 0.0502268
17 3 0.400839 0.999148 0.00160104
18 2 0.450696 0.050521 0.999874
19 1 0.401029 0.050052 0.0498444
20 2 0.450636 0.999712 0.050229
21 5 0.501455 0.99883 0.998631
22 1 0.550537 0.0513936 0.999012
23 5 0.500378 0.0523323 0.050749
24 2 0.551118 0.999891 0.0509173
25 5 0.600265 0.999999 0.999327
26 2 0.650353 0.0504459 0.999301
27 1 0.600305 0.0510461 0.0494976
28 1 0.649264 0.998988 0.0488602
29 3 0.698183 0.998758 0.999681
30 5 0.750228 0.0470847 0.998614
31 2 0.698966 0.0501767 0.0498079
32 4 0.750061 0.999101 0.0498027
33 4 0.800978 0.99925 0.999308
34 2 0.850315 0.0487135 0.999295
35 4 0.800799 0.0483161 0.0496301
36 4 0.850641 0.998642 0.0494083
37 1 0.900807 0.999816 0.998803
38 4 0.949829 0.0496309 0.999708
39 1 0.900268 0.0494099 0.049496
40 3 0.94936 0.999777 0.049063
41 2 0.999766 0.100401 0.00100621
42 4 0.0483198 0.150308 0.00208799
43 2 0.999282 0.150709 0.0501217
44 2 0.0490707 0.0998995 0.0505708
45 4 0.0983813 0.099136 0.00166198
46 4 0.150196 0.149411 0.00128529
47 1 0.0990198 0.150388 0.0500138
48 2 0.149932 0.10026 0.0502124
49 4 0.200874 0.0996178 0.00160979
50 1 0.251826 0.149985 0.00136247
51 2 0.199942 0.150084 0.0502095
52 2 0.249797 0.099953 0.0499178
53 2 0.300324 0.100069 0.000888174
54 2 0.35008 0.150173 0.000139382
55 4 0.301224 0.150473 0.0499648
56 2 0.351193 0.100253 0.0496677
57 2 0.40042 0.100442 0.000288843
58 1 0.44926 0.149727 0.999747
59 2 0.400391 0.150708 0.0490827
60 4 0.44943 0.101244 0.0497343
61 1 0.500113 0.101191 0.999041
62 2 0.550822 0.149267 0.999267
63 4 0.499165 0.149395 0.0503087
64 2 0.551091 0.101682 0.0495532
65 1 0.600675 0.100269 0.999135
66 4 0.64921 0.150206 0.998498
67 2 0.601341 0.149601 0.0494844
68 3 0.650004 0.0997304 0.0493882
69 2 0.699264 0.099896 0.998253
70 2 0.749961 0.150462 0.999284
71 5 0.697278 0.151434 0.0492474
72 5 0.751006 0.0989965 0.0503912
73 1 0.799864 0.0998179 0.998007
74 2 0.849901 0.151095 0.999077
75 2 0.800285 0.151413 0.049267
76 5 0.850323 0.101452 0.0480943
77 2 0.900162 0.100038 0.99956
78 3 0.950291 0.151141 0.00053291
79 4 0.900504 0.151347 0.0497902
80 2 0.948991 0.100428 0.0497668
81 4 0.999589 0.200985 0.000228234
82 2 0.0492424 0.250427 0.99999
83 2 0.999336 0.250282 0.0498828
84 1 0.0489966 0.20054 0.0502087
85 4 0.0983839 0.201059 0.00181111
86 2 0.149118 0.251534 0.000629327
87 3 0.0989173 0.250448 0.0501376
88 2 0.148884 0.199851 0.0497514
89 2 0.201519 0.199871 0.00104038
90 2 0.251557 0.250383 0.999589
91 5 0.200825 0.250386 0.0502567
92 3 0.251668 0.200133 0.04983
93 4 0.300693 0.20019 0.000485379
94 2 0.350006 0.250653 0.999836
95 2 0.300996 0.250447 0.0495583
96 4 0.350678 0.200881 0.0492934
97 3 0.399769 0.200462 0.999707
98 3 0.449803 0.250567 0.999014
99 1 0.399445 0.250526 0.0500487
100 4 0.449647 0.200295 0.0500496
101 5 0.498889 0.200117 0.997641
102 4 0.550135 0.25076 0.999274
103 2 0.500151 0.250322 0.0501733
104 5 0.549842 0.198681 0.0520602
105 2 0.600253 0.199039 0.998922
106 4 0.650328 0.249835 0.999211
107 5 0.601252 0.251664 0.0497126
108 1 0.648952 0.200916 0.0498998
109 2 0.699002 0.199953 0.998886
110 5 0.750363 0.24897 0.000282422
111 2 0.699126 0.249585 0.0508184
112 2 0.749777 0.199909 0.0506558
113 2 0.800345 0.199475 0.99959
114 1 0.84992 0.249473 0.000228764
115 3 0.800881 0.24935 0.0507698
116 2 0.85022 0.199873 0.0499487
117 2 0.900272 0.200387 5.80961e-05
118 2 0.949278 0.25033 0.999641
119 4 0.899764 0.249577 0.0501981
120 2 0.950224 0.200796 0.0496686
121 2 0.000227263 0.298997 0.999279
122 2 0.049119 0.348663 0.999222
123 4 0.999005 0.349403 0.0497862
124 2 0.0489282 0.299947 0.0495102
125 4 0.0990507 0.300245 0.999566
126 4 0.150541 0.349787 0.999216
127 2 0.098784 0.349209 0.0492495
128 2 0.149611 0.300443 0.0484071
129 3 0.200411 0.300854 0.998955
130 2 0.250817 0.350358 0.999691
131 2 0.201398 0.349999 0.0485945
132 1 0.251247 0.300531 0.0489954
133 2 0.300384 0.300503 0.999618
134 3 0.349736 0.350336 0.999238
135 1 0.300431 0.350171 0.049405
136 2 0.350063 0.300207 0.0493647
137 2 0.399761 0.300568 0.999097
138 3 0.450421 0.35109 0.998868
139 4 0.39904 0.350534 0.0495938
140 5 0.449924 0.300355 0.0494901
141 4 0.500534 0.299937 0.998608
142 1 0.549877 0.350623 0.00019333
143 3 0.500064 0.350967 0.0491689
144 3 0.549185 0.300269 0.0493545
145 2 0.599672 0.300946 0.999275
146 2 0.648884 0.350463 0.00088602
147 2 0.600312 0.350239 0.0493334
148 1 0.650556 0.300671 0.0500245
149 1 0.700027 0.299103 0.00176097
150 3 0.751912 0.350304 0.00136584
151 3 0.700092 0.350179 0.0498812
152 4 0.74989 0.299881 0.0509738
153 4 0.799516 0.298876 0.999848
154 5 0.84797 0.348163 0.999835
155 2 0.799533 0.349085 0.0512137
156 2 0.849125 0.298465 0.0513475
157 2 0.899048 0.298432 0.999641
158 5 0.949336 0.347715 0.99783
159 5 0.900206 0.349381 0.052901
160 1 0.949961 0.298409 0.0504771
161 5 0.999666 0.401421 0.999295
162 2 0.0498435 0.4512 0.998897
163 4 0.998277 0.450565 0.0497235
164 2 0.0493562 0.398734 0.0495236
165 5 0.100052 0.399857 0.999172
166 4 0.150553 0.449858 9.13255e-05
167 4 0.100317 0.450715 0.0491704
168 2 0.150501 0.400479 0.049047
169 2 0.200749 0.400329 0.999775
170 2 0.2507 0.44942 0.999843
171 4 0.200504 0.449831 0.0502872
172 2 0.250918 0.399883 0.0491174
173 4 0.300108 0.400031 0.999441
174 3 0.349407 0.449957 0.998446
175 2 0.300216 0.449575 0.0494606
176 4 0.349457 0.399565 0.0491027
177 2 0.39991 0.399675 0.999054
178 4 0.450528 0.449916 0.999031
179 5 0.4002 0.449594 0.0499346
180 4 0.450009 0.399468 0.0496601
181 3 0.500218 0.400264 0.999808
182 2 0.550079 0.449799 0.999912
183 2 0.49973 0.450069 0.0497409
184 4 0.549984 0.400566 0.0495292
185 2 0.599814 0.400304 0.999962
186 4 0.649666 0.449915 0.000326249
187 2 0.599941 0.449819 0.0495939
188 2 0.649575 0.400164 0.0501927
189 2 0.700001 0.400794 0.00133945
190 5 0.751606 0.450405 0.00155998
191 1 0.70003 0.449591 0.0505397
192 4 0.750268 0.399769 0.0511149
193 2 0.800095 0.399454 0.000513858
194 5 0.849284 0.450372 0.00287186
195 4 0.799954 0.450615 0.0521178
196 1 0.850264 0.399575 0.0514655
197 4 0.89992 0.399803 0.999561
198 2 0.94913 0.451051 0.00083971
199 2 0.900786 0.45013 0.050732
200 2 0.948985 0.400349 0.0504286
201 1 0.99825 0.500932 0.998997
202 2 0.0495701 0.552012 0.998543
203 2 0.999061 0.55153 0.0493325
204 5 0.0502007 0.502644 0.047145
205 2 0.100892 0.500246 0.998592
206 2 0.15002 0.550812 0.999727
207 2 0.100699 0.551352 0.049736
208 4 0.14933 0.500583 0.0496627
209 5 0.200463 0.500084 0.999888
210 1 0.25061 0.550715 0.999655
211 3 0.200252 0.550818 0.0507051
212 2 0.251057 0.499467 0.0505959
213 4 0.300101 0.499349 0.999267
214 2 0.350262 0.549541 0.999088
215 5 0.301167 0.549805 0.0504964
216 4 0.349788 0.499189 0.0493975
217 4 0.399944 0.500171 0.999003
218 3 0.449345 0.549937 0.999159
219 1 0.398548 0.549854 0.0492426
220 2 0.449614 0.49975 0.0489307
221 4 0.500145 0.499479 0.99935
222 2 0.550822 0.550413 0.99962
223 5 0.501221 0.550263 0.0486809
224 2 0.551042 0.499071 0.0488397
225 4 0.599607 0.500213 0.999173
226 2 0.650514 0.551409 0.999929
227 4 0.599155 0.551085 0.0493768
228 5 0.649865 0.500789 0.0499911
229 4 0.700574 0.501516 0.000430894
230 2 0.749974 0.551196 0.000375924
231 2 0.700786 0.551637 0.0499242
232 2 0.749395 0.501381 0.0509659
233 2 0.799341 0.502421 0.000754503
234 2 0.849081 0.55123 0.000325318
235 1 0.799219 0.551756 0.0500085
236 2 0.850577 0.501983 0.0504437
237 4 0.900671 0.501821 0.999809
238 2 0.950404 0.550684 0.999427
239 2 0.900107 0.550264 0.0494868
240 2 0.949554 0.500967 0.0499179
241 2 0.000147445 0.600781 0.999351
242 4 0.0500099 0.650445 0.999282
243 2 0.000553404 0.649875 0.0492842
244 2 0.0501937 0.600599 0.0492332
245 2 0.0998079 0.600616 0.000372702
246 2 0.149433 0.650003 0.000891558
247 2 0.0998674 0.64972 0.0493869
248 4 0.149723 0.600198 0.0498752
249 2 0.199806 0.600075 0.000950651
250 4 0.249589 0.649636 0.00161616
251 1 0.199222 0.650395 0.0501801
252 2 0.249788 0.60086 0.050223
253 2 0.300819 0.599855 0.000639527
254 2 0.351528 0.650342 0.000536517
255 3 0.300563 0.650453 0.05035
256 2 0.351175 0.600811 0.0499929
257 2 0.400053 0.600085 8.18854e-05
258 4 0.449762 0.650164 0.999774
259 4 0.400457 0.650328 0.0500688
260 1 0.44934 0.600907 0.0493972
261 4 0.499912 0.600947 0.999705
262 2 0.550149 0.650402 0.999922
263 3 0.499732 0.650153 0.0497142
264 4 0.550435 0.601176 0.050047
265 2 0.599643 0.600932 0.000555051
266 2 0.65033 0.650388 0.999971
267 2 0.599599 0.650088 0.0490408
268 3 0.649866 0.599595 0.0492878
269 2 0.700585 0.601097 0.999561
270 2 0.750073 0.650995 0.999508
271 2 0.701252 0.65032 0.0484693
272 2 0.750169 0.600842 0.0502221
273 2 0.799204 0.601129 0.000303953
274 3 0.848236 0.650184 0.999495
275 2 0.799811 0.650304 0.0498621
276 2 0.848593 0.600785 0.0499768
277 5 0.900334 0.600505 0.999701
278 3 0.951712 0.650465 0.999221
279 4 0.899947 0.650784 0.0498148
280 2 0.951319 0.601062 0.049702
281 2 0.000364224 0.70025 0.999128
282 4 0.0498843 0.749852 0.999602
283 2 0.000518894 0.749633 0.0484536
284 3 0.0500773 0.699379 0.0487382
285 2 0.0999086 0.700384 0.999293
286 2 0.149527 0.750084 4.2207e-05
287 3 0.100116 0.750034 0.0492678
288 2 0.149421 0.699992 0.0501416
289 2 0.198199 0.700146 0.00148485
290 4 0.249136 0.750014 0.00102928
291 4 0.199149 0.749299 0.0501465
292 4 0.249239 0.700274 0.0494881
293 2 0.300535 0.699875 0.00134609
294 4 0.350379 0.747893 0.00103839
295 4 0.299642 0.748816 0.0501907
296 2 0.350643 0.699756 0.0503764
297 2 0.400747 0.699787 0.000352138
298 4 0.45148 0.747797 6.06499e-05
299 3 0.400688 0.747552 0.0510096
300 1 0.450737 0.698974 0.0500382
301 2 0.500421 0.69939 0.000404558
302 2 0.549991 0.74911 0.000615491
303 2 0.500712 0.749028 0.0499226
304 4 0.549965 0.699788 0.0494304
305 4 0.600443 0.699986 0.000311509
306 2 0.65009 0.749493 0.999474
307 2 0.599971 0.750013 0.0495979
308 2 0.649855 0.700863 0.0487966
309 4 0.699135 0.699424 0.999356
310 5 0.750221 0.747943 0.997529
311 2 0.69934 0.749205 0.0499173
312 2 0.750417 0.699966 0.0500747
313 2 0.800451 0.699454 0.999315
314 2 0.849067 0.75007 0.998499
315 4 0.801087 0.749326 0.0498042
316 2 0.849126 0.699776 0.0500784
317 5 0.899761 0.699795 0.99911
318 2 0.950571 0.750297 0.999411
319 3 0.898527 0.749885 0.0487858
320 1 0.950644 0.699125 0.0489657
321 2 0.999584 0.79951 0.99952
322 2 0.0486298 0.848165 2.67159e-05
323 2 0.999292 0.849491 0.0493715
324 1 0.0497485 0.799474 0.0494933
325 3 0.0998052 0.799425 0.999697
326 2 0.150267 0.849054 0.000579387
327 4 0.0999438 0.848374 0.0504206
328 4 0.149973 0.799059 0.0503514
329 2 0.199324 0.798868 0.000739155
330 5 0.251209 0.848366 0.00164865
331 2 0.199189 0.848856 0.0513623
332 1 0.248821 0.797709 0.0513956
333 4 0.299251 0.797144 0.00103362
334 5 0.349361 0.850036 0.00358138
335 2 0.298519 0.848518 0.051465
336 2 0.349672 0.796798 0.0498518
337 5 0.40391 0.797408 0.00130534
338 4 0.451484 0.84975 0.000839869
339 2 0.402428 0.84974 0.0504783
340 3 0.452526 0.798692 0.0512037
341 2 0.499616 0.799367 0.000694694
342 2 0.550165 0.850256 0.000366267
343 2 0.501511 0.849571 0.0499008
344 2 0.550624 0.79962 0.0494548
345 2 0.600587 0.799069 0.000260825
346 2 0.648716 0.849585 0.997455
347 4 0.600575 0.84927 0.049549
348 2 0.648954 0.798657 0.0494684
349 2 0.6988 0.799218 0.998573
350 5 0.749776 0.851153 0.995419
351 5 0.695218 0.850679 0.0494552
352 5 0.749944 0.798369 0.0509012
353 4 0.801181 0.799343 0.997954
354 3 0.851443 0.849599 0.997796
355 5 0.805074 0.850668 0.0500207
356 2 0.851216 0.798958 0.04917
357 4 0.899921 0.798916 0.998706
358 2 0.949665 0.848575 0.99927
359 2 0.899536 0.849518 0.0494514
360 4 0.949381 0.799975 0.0484546
361 4 0.999302 0.898683 0.999572
362 3 0.047867 0.949165 0.00103395
363 4 0.998326 0.948775 0.0494459
364 1 0.0485787 0.899625 0.050495
365 5 0.0997014 0.897404 0.00138644
366 4 0.149856 0.949953 0.000544811
367 2 0.0999515 0.949338 0.0501064
368 3 0.150415 0.899577 0.0505928
369 4 0.199724 0.899336 0.00175598
370 2 0.250302 0.949415 0.00177886
371 4 0.199359 0.950005 0.0499146
372 2 0.249358 0.899681 0.0510704
373 2 0.299285 0.900769 0.00185034
374 3 0.349992 0.950802 0.00224044
375 2 0.299452 0.950008 0.0507701
376 1 0.350326 0.901953 0.0513574
377 1 0.40136 0.900288 0.00173781
378 2 0.450728 0.949411 0.000482505
379 2 0.401351 0.950214 0.0505222
380 2 0.451225 0.899666 0.0501361
381 2 0.500911 0.899691 0.000468915
382 2 0.550915 0.948312 0.999281
383 3 0.501094 0.949062 0.0506215
384 2 0.550826 0.899159 0.0497815
385 3 0.59994 0.899641 0.99913
386 4 0.649908 0.948926 0.998984
387 2 0.599858 0.948731 0.0499844
388 3 0.647987 0.900647 0.0490689
389 2 0.698603 0.899993 0.998182
390 5 0.749768 0.948671 0.998933
391 2 0.698876 0.947717 0.0491445
392 2 0.750064 0.898455 0.0490966
393 2 0.800751 0.899373 0.998142
394 5 0.850426 0.949185 0.998846
395 2 0.800614 0.948716 0.0494797
396 4 0.852778 0.900813 0.0501918
397 2 0.901233 0.899027 0.999079
398 2 0.950007 0.949283 0.998718
399 2 0.901357 0.949656 0.0497493
400 3 0.949257 0.89893 0.0492061
401 1 0.99849 0.998713 0.100073
402 4 0.049161 0.0494595 0.0994877
403 2 0.998867 0.049127 0.148966
404 3 0.0491185 0.999237 0.148494
405 2 0.0997694 0.999697 0.1
406 2 0.149565 0.0497455 0.0990476
407 4 0.100083 0.0502589 0.148355
408 2 0.150043 0.000330709 0.148364
409 2 0.198979 3.64874e-05 0.099249
410 2 0.249022 0.049983 0.098438
411 2 0.199159 0.050239 0.148885
412 2 0.247417 0.000835627 0.14954
413 1 0.300191 0.000289179 0.0974565
414 4 0.351304 0.0493868 0.0983169
415 5 0.299094 0.0493233 0.147893
416 2 0.351758 0.000147155 0.148156
417 1 0.401272 0.99982 0.0987759
418 2 0.450117 0.0498854 0.10009
419 2 0.401009 0.0495502 0.14771
420 2 0.451003 0.999645 0.14903
421 4 0.50068 0.999376 0.099666
422 1 0.551542 0.0512239 0.0998383
423 1 0.501179 0.050443 0.148855
424 5 0.552845 0.999915 0.148489
425 2 0.601351 0.999497 0.0987524
426 2 0.649275 0.0503785 0.0992738
427 2 0.600568 0.0504567 0.150003
428 1 0.648178 0.998651 0.151195
429 5 0.697461 0.998861 0.0986051
430 1 0.7507 0.0483895 0.100435
431 5 0.701014 0.0493814 0.152219
432 4 0.750157 0.998099 0.150834
433 2 0.799847 0.998417 0.0997288
434 5 0.849945 0.0474156 0.101804
435 1 0.799479 0.0480656 0.151491
436 2 0.850193 0.99792 0.151223
437 3 0.901223 0.998356 0.100233
438 3 0.949439 0.0500774 0.100122
439 1 0.901019 0.0496795 0.150965
440 2 0.950286 0.999314 0.150215
441 3 0.997938 0.100024 0.0988293
442 2 0.049103 0.150582 0.0985324
443 2 0.998977 0.150367 0.149038
444 5 0.048861 0.0999384 0.1488
445 2 0.099994 0.100046 0.0987456
446 2 0.149647 0.150119 0.0989549
447 1 0.0999207 0.150012 0.14826
448 2 0.149471 0.0996373 0.148401
449 4 0.19952 0.0999057 0.0986726
450 2 0.249604 0.15014 0.098331
451 4 0.199092 0.149307 0.148198
452 3 0.248641 0.0997579 0.148172
453 1 0.301046 0.0997994 0.0975538
454 1 0.352 0.150693 0.0978965
455 5 0.302254 0.149963 0.147627
456 1 0.351676 0.0996018 0.147645
457 2 0.400423 0.100172 0.0985959
458 1 0.449424 0.150622 0.0995492
459 2 0.39926 0.150981 0.148821
460 3 0.449802 0.100283 0.147371
461 2 0.500397 0.10128 0.100593
462 4 0.550344 0.149326 0.101197
463 2 0.500785 0.150238 0.148645
464 2 0.551288 0.100266 0.150124
465 3 0.600259 0.100677 0.0991923
466 3 0.649157 0.151379 0.10054
467 2 0.599232 0.151908 0.150652
468 5 0.648656 0.101947 0.150845
469 2 0.699966 0.0998947 0.100921
470 5 0.751384 0.152244 0.103055
471 2 0.699785 0.151673 0.150877
472 2 0.750188 0.0999675 0.150576
473 3 0.800061 0.100023 0.101806
474 4 0.85049 0.151193 0.100135
475 2 0.801652 0.151411 0.150281
476 2 0.85108 0.100471 0.149959
477 2 0.900687 0.101048 0.100596
478 4 0.949645 0.150914 0.0991948
479 1 0.900655 0.150577 0.149144
480 4 0.950156 0.100416 0.149509
481 2 0.999509 0.200421 0.0992904
482 3 0.0490596 0.250789 0.0999376
483 3 0.998551 0.250778 0.14845
484 2 0.0497755 0.199166 0.148116
485 4 0.0992051 0.20026 0.0990696
486 3 0.148782 0.250998 0.0998866
487 2 0.100032 0.250612 0.148367
488 2 0.14854 0.200081 0.147921
489 2 0.199456 0.199874 0.100155
490 2 0.251163 0.25053 0.100348
491 2 0.199253 0.250487 0.147773
492 1 0.250029 0.199391 0.14831
493 2 0.301111 0.200831 0.0983659
494 1 0.350735 0.250414 0.0994159
495 3 0.301727 0.24997 0.148607
496 2 0.35107 0.201068 0.149092
497 3 0.400442 0.201461 0.0993465
498 2 0.449488 0.25012 0.100323
499 4 0.400088 0.25097 0.149797
500 2 0.44933 0.201096 0.148903
501 3 0.499338 0.2002 0.100936
502 2 0.549821 0.251243 0.101049
503 2 0.499898 0.251551 0.149479
504 2 0.550621 0.201321 0.148768
505 2 0.600561 0.200319 0.101322
506 2 0.650278 0.250304 0.101002
507 2 0.599933 0.250345 0.150707
508 2 0.649778 0.20099 0.150426
509 2 0.699319 0.201655 0.101385
510 2 0.749763 0.249971 0.100078
511 4 0.699773 0.250704 0.150459
512 2 0.7498 0.201927 0.151259
513 3 0.801165 0.201063 0.10055
514 2 0.85041 0.24979 0.10036
515 3 0.799941 0.250526 0.150604
516 2 0.850316 0.200819 0.14981
517 3 0.900125 0.200026 0.0998646
518 1 0.949996 0.249889 0.0995401
519 3 0.900357 0.250291 0.149555
520 2 0.950491 0.200103 0.14878
521 2 0.999357 0.300794 0.0996899
522 2 0.0493614 0.350107 0.099497
523 2 0.999695 0.350201 0.149835
524 2 0.0496876 0.301889 0.148527
525 2 0.0989584 0.300249 0.0991324
526 5 0.14963 0.350036 0.0988679
527 4 0.0990138 0.350425 0.149859
528 2 0.149144 0.300625 0.149334
529 1 0.200768 0.300622 0.0994851
530 1 0.250284 0.350109 0.0980173
531 2 0.201211 0.351021 0.149081
532 2 0.250262 0.300445 0.148447
533 2 0.300543 0.299624 0.0985286
534 2 0.350566 0.34962 0.0984805
535 5 0.300886 0.349428 0.147738
536 2 0.350874 0.299361 0.149942
537 4 0.399562 0.300243 0.10014
538 2 0.449575 0.350038 0.0995867
539 4 0.398876 0.349168 0.149699
540 2 0.449838 0.300516 0.149781
541 3 0.499945 0.299444 0.100682
542 5 0.550363 0.350076 0.100147
543 2 0.500042 0.349303 0.150937
544 4 0.550358 0.299918 0.150924
545 2 0.600563 0.30022 0.101046
546 4 0.649595 0.35007 0.0995873
547 2 0.600365 0.350181 0.151094
548 3 0.649092 0.299173 0.150248
549 1 0.699737 0.299403 0.0996344
550 4 0.749584 0.349149 0.0999133
551 5 0.69938 0.349024 0.150349
552 2 0.750222 0.299011 0.1499
553 2 0.799634 0.299111 0.100653
554 3 0.849536 0.348697 0.102156
555 3 0.799871 0.348454 0.151249
556 1 0.850064 0.299514 0.150897
557 2 0.9001 0.298611 0.101242
558 2 0.950397 0.34961 0.101033
559 2 0.899834 0.349378 0.150404
560 2 0.949668 0.300008 0.149665
561 1 0.998382 0.398748 0.0996681
562 5 0.0480638 0.448112 0.0988245
563 1 0.999288 0.450444 0.150237
564 2 0.0492537 0.398684 0.150746
565 1 0.0994879 0.399109 0.0994773
566 3 0.149778 0.450049 0.0976777
567 5 0.101874 0.449115 0.151221
568 1 0.15012 0.398334 0.150851
569 2 0.200949 0.399117 0.0980008
570 2 0.251361 0.449353 0.0987789
571 5 0.200514 0.448257 0.147318
572 3 0.250624 0.399875 0.149213
573 2 0.300799 0.400439 0.0985459
574 2 0.349769 0.449585 0.100424
575 2 0.300027 0.450127 0.149588
576 2 0.351222 0.400398 0.149684
577 1 0.399423 0.399379 0.0995139
578 4 0.450056 0.450486 0.0998098
579 1 0.399697 0.449946 0.149971
580 5 0.448915 0.398908 0.150225
581 2 0.499862 0.400632 0.0995872
582 3 0.549876 0.450103 0.0984363
583 5 0.501626 0.451471 0.150495
584 4 0.549862 0.399222 0.151009
585 2 0.600302 0.400185 0.0995985
586 2 0.650603 0.449349 0.0998663
587 5 0.600181 0.450531 0.15066
588 1 0.649464 0.39987 0.150106
589 2 0.699692 0.399983 0.0997626
590 4 0.749112 0.450554 0.100966
591 2 0.699277 0.450388 0.150199
592 3 0.749239 0.400371 0.15054
593 5 0.800253 0.400228 0.101442
594 2 0.851434 0.450901 0.100269
595 2 0.800641 0.450825 0.151251
596 3 0.851309 0.399771 0.151075
597 4 0.900216 0.400909 0.101342
598 1 0.949773 0.450496 0.100743
599 2 0.900079 0.450876 0.149807
600 2 0.949922 0.399792 0.149726
601 3 0.998368 0.501568 0.0992477
602 2 0.0498931 0.552696 0.0995834
603 4 0.998681 0.552438 0.150408
604 5 0.0487074 0.504228 0.15194
605 1 0.100056 0.501589 0.0995502
606 2 0.14958 0.550883 0.0995917
607 4 0.100585 0.551672 0.149813
608 2 0.150018 0.50179 0.148616
609 2 0.199907 0.500903 0.0987236
610 2 0.250142 0.550218 0.100304
611 4 0.200249 0.550645 0.148857
612 2 0.251034 0.500191 0.148517
613 2 0.300826 0.498993 0.100136
614 2 0.350898 0.549625 0.101052
615 4 0.300496 0.549178 0.149174
616 2 0.349882 0.499311 0.149787
617 4 0.398817 0.499226 0.100141
618 5 0.447914 0.549924 0.100953
619 2 0.398645 0.549397 0.15109
620 3 0.44917 0.499604 0.150541
621 2 0.500541 0.499953 0.0989941
622 3 0.550677 0.549653 0.0993233
623 2 0.499083 0.548397 0.15042
624 3 0.551012 0.502018 0.150291
625 2 0.59964 0.501119 0.0994988
626 2 0.65046 0.5518 0.100195
627 3 0.601544 0.549325 0.149327
628 4 0.650529 0.500875 0.149456
629 3 0.700727 0.501019 0.100899
630 4 0.749845 0.551574 0.100635
631 4 0.699927 0.551426 0.15016
632 1 0.74898 0.501338 0.150907
633 5 0.800137 0.501932 0.101382
634 2 0.849867 0.551318 0.100188
635 2 0.800029 0.552163 0.150731
636 2 0.851748 0.50127 0.150629
637 2 0.900428 0.500791 0.0998026
638 2 0.950329 0.55094 0.0996871
639 3 0.900888 0.550851 0.150438
640 4 0.950164 0.501772 0.149621
641 2 0.000141631 0.60101 0.0998184
642 2 0.0504227 0.649406 0.0992101
643 2 0.999978 0.649842 0.150033
644 2 0.0497993 0.600458 0.150163
645 4 0.100117 0.600169 0.099685
646 1 0.149198 0.649705 0.0990575
647 2 0.0997309 0.649632 0.149616
648 1 0.149514 0.600059 0.149322
649 4 0.199628 0.600164 0.0992519
650 4 0.249363 0.650683 0.0983614
651 5 0.199719 0.650051 0.149208
652 4 0.249984 0.599371 0.149118
653 2 0.300559 0.600422 0.100154
654 2 0.351124 0.650683 0.0993941
655 5 0.300557 0.651543 0.148467
656 2 0.351032 0.599811 0.149767
657 3 0.399369 0.60092 0.100239
658 2 0.449742 0.650128 0.0997868
659 2 0.399394 0.65037 0.149548
660 2 0.450177 0.59994 0.150385
661 4 0.499137 0.600596 0.0991463
662 2 0.549507 0.650856 0.0989075
663 2 0.500345 0.650823 0.149144
664 5 0.547789 0.598778 0.148844
665 4 0.599969 0.600166 0.099262
666 5 0.651908 0.650271 0.0981189
667 5 0.59976 0.652824 0.149971
668 2 0.650935 0.600418 0.149817
669 2 0.701209 0.600076 0.10005
670 2 0.750343 0.650121 0.0999808
671 2 0.700901 0.650051 0.150529
672 4 0.750091 0.601284 0.15013
673 4 0.799824 0.600589 0.100196
674 2 0.848789 0.650557 0.0997876
675 1 0.799869 0.650416 0.149663
676 4 0.849689 0.601297 0.150406
677 5 0.899588 0.601106 0.0992297
678 2 0.950676 0.650666 0.0995232
679 4 0.899678 0.650771 0.150177
680 2 0.950286 0.60129 0.150308
681 2 0.000704606 0.698312 0.0986018
682 2 0.0501128 0.74869 0.0979303
683 5 0.000155714 0.746443 0.150553
684 2 0.050585 0.698114 0.149599
685 3 0.0998809 0.698913 0.0995876
686 2 0.149322 0.749324 0.0996299
687 2 0.0996081 0.748122 0.148906
688 2 0.148784 0.699938 0.149425
689 4 0.199439 0.700104 0.0990197
690 3 0.24967 0.749146 0.099673
691 2 0.199299 0.748449 0.148563
692 2 0.250035 0.701184 0.149618
693 3 0.300032 0.700793 0.0992475
694 1 0.35028 0.749625 0.0999055
695 2 0.300898 0.749503 0.149805
696 2 0.351283 0.701174 0.149749
697 2 0.400827 0.699768 0.100186
698 2 0.450868 0.749591 0.0999026
699 3 0.400672 0.7506 0.149989
700 3 0.450657 0.701222 0.149032
701 4 0.500203 0.699983 0.099459
702 2 0.550228 0.74988 0.0991811
703 2 0.500564 0.750339 0.149521
704 4 0.549415 0.701466 0.149094
705 2 0.599482 0.70103 0.0980364
706 2 0.650146 0.749893 0.0993716
707 1 0.599652 0.749846 0.148444
708 4 0.65121 0.700356 0.148428
709 3 0.701305 0.700695 0.0991014
710 1 0.750641 0.748943 0.101132
711 2 0.700809 0.7497 0.149023
712 1 0.750562 0.699301 0.150016
713 2 0.800098 0.699814 0.0997702
714 2 0.849694 0.74956 0.0998173
715 2 0.800053 0.749145 0.14989
716 1 0.849482 0.699409 0.150292
717 3 0.898814 0.698617 0.0997504
718 5 0.948816 0.749528 0.0975119
719 3 0.899561 0.748051 0.149688
720 4 0.94941 0.698474 0.149978
721 1 0.998934 0.799776 0.0979096
722 2 0.0497394 0.850538 0.0981196
723 5 0.997922 0.852079 0.148683
724 5 0.0507328 0.799884 0.146657
725 2 0.100593 0.799074 0.0983519
726 4 0.14985 0.849297 0.0996461
727 2 0.10053 0.850356 0.148275
728 2 0.148792 0.799162 0.148327
729 2 0.199004 0.798812 0.100454
730 4 0.249503 0.849003 0.0999353
731 2 0.199233 0.849412 0.148353
732 2 0.250735 0.799281 0.148276
733 2 0.299611 0.798198 0.0996828
734 5 0.350125 0.847704 0.0974603
735 2 0.299778 0.848632 0.149705
736 2 0.35077 0.799005 0.150436
737 2 0.401525 0.798649 0.0999216
738 4 0.451595 0.849055 0.0991693
739 4 0.401694 0.847459 0.149903
740 4 0.451363 0.799557 0.149521
741 2 0.501262 0.799512 0.0997714
742 2 0.550528 0.849336 0.0995194
743 4 0.501616 0.848531 0.149351
744 4 0.55038 0.799244 0.14969
745 2 0.599949 0.799974 0.0995255
746 2 0.648366 0.849906 0.100811
747 4 0.599194 0.849287 0.149699
748 2 0.649388 0.800039 0.149237
749 2 0.698827 0.799388 0.100816
750 5 0.750006 0.851848 0.103761
751 2 0.698613 0.850389 0.151076
752 2 0.750056 0.799007 0.150613
753 2 0.801546 0.799114 0.100902
754 1 0.852194 0.850362 0.101409
755 4 0.801713 0.850031 0.15078
756 2 0.849593 0.799386 0.14969
757 2 0.899723 0.80022 0.0998746
758 1 0.948399 0.849824 0.0985904
759 2 0.900781 0.850629 0.149558
760 2 0.950747 0.799129 0.149507
761 4 0.998724 0.900271 0.09845
762 4 0.0491841 0.948853 0.0997346
763 2 0.999996 0.948756 0.149274
764 4 0.0503533 0.899884 0.148902
765 2 0.0996354 0.899457 0.0989079
766 2 0.149421 0.949528 0.0991989
767 2 0.0997852 0.949367 0.148577
768 2 0.148577 0.899588 0.148437
769 4 0.199586 0.899673 0.0995796
770 2 0.248804 0.950026 0.0990179
771 3 0.198913 0.950629 0.14856
772 3 0.249621 0.898809 0.149009
773 1 0.299263 0.899852 0.0997849
774 4 0.351008 0.950885 0.0996086
775 5 0.297771 0.952383 0.148808
776 5 0.352315 0.898693 0.149701
777 4 0.401571 0.900065 0.0986755
778 4 0.451274 0.949874 0.0993798
779 2 0.402044 0.950771 0.149221
780 5 0.451283 0.898671 0.14993
781 4 0.501602 0.899508 0.0990106
782 4 0.551044 0.948632 0.0992926
783 3 0.501181 0.949228 0.14935
784 2 0.550221 0.898589 0.149777
785 4 0.599421 0.898758 0.0998634
786 4 0.648366 0.948311 0.100049
787 2 0.600747 0.947879 0.150558
788 2 0.64954 0.899436 0.150714
789 2 0.698345 0.900165 0.100844
790 5 0.751148 0.947065 0.0996263
791 1 0.698707 0.948778 0.151363
792 1 0.750426 0.900608 0.152815
793 2 0.802679 0.899923 0.100676
794 2 0.850909 0.94939 0.0999969
795 3 0.800808 0.94922 0.151592
796 4 0.851033 0.900089 0.150202
797 1 0.900445 0.900435 0.100395
798 2 0.950057 0.949201 0.0997482
799 2 0.900187 0.949605 0.150344
800 2 0.948898 0.900459 0.150013
801 2 0.0011128 0.998798 0.198629
802 2 0.0487504 0.0498099 0.199636
803 3 0.000331349 0.0504147 0.249998
804 1 0.0485935 0.999605 0.250558
805 5 0.0997209 0.000239983 0.199747
806 2 0.150093 0.0502783 0.199305
807 2 0.0990882 0.0505346 0.250314
808 2 0.149464 1.07894e-05 0.250841
809 4 0.198147 0.000127956 0.199621
810 4 0.248142 0.0500715 0.199668
811 4 0.198866 0.0492314 0.250123
812 3 0.247434 0.999987 0.24872
813 2 0.299333 0.000728411 0.199179
814 5 0.354014 0.0495167 0.199285
815 5 0.300318 0.0503287 0.250196
816 2 0.351308 0.00126693 0.251147
817 2 0.403236 0.999624 0.200287
818 5 0.449364 0.052187 0.199768
819 1 0.400966 0.0515496 0.252301
820 3 0.450792 0.000120484 0.251605
821 5 0.501138 0.998866 0.201824
822 2 0.551059 0.0508577 0.200635
823 2 0.501265 0.0514215 0.250858
824 2 0.551242 8.24017e-05 0.251371
825 4 0.59977 0.998988 0.20168
826 3 0.648622 0.0486852 0.200783
827 2 0.599538 0.0501097 0.250606
828 2 0.649403 0.99943 0.249924
829 2 0.699016 0.997948 0.201309
830 3 0.750693 0.0496389 0.201461
831 2 0.699156 0.0501423 0.248117
832 2 0.750315 0.998575 0.249328
833 3 0.799989 0.998332 0.201148
834 3 0.8498 0.0489722 0.198899
835 2 0.800358 0.0489481 0.249028
836 4 0.850512 0.997383 0.249345
837 2 0.900437 0.998207 0.1994
838 2 0.95129 0.0502188 0.198161
839 5 0.901003 0.0510224 0.246811
840 5 0.952412 0.997133 0.249969
841 2 0.999652 0.100173 0.199683
842 4 0.0494011 0.150216 0.198607
843 2 0.998815 0.148867 0.249653
844 2 0.0486644 0.0994732 0.249518
845 4 0.0994706 0.0990855 0.198638
846 1 0.149027 0.148538 0.197958
847 5 0.100325 0.148462 0.24927
848 4 0.149282 0.098596 0.249427
849 2 0.198568 0.0988412 0.199311
850 5 0.249966 0.148284 0.201318
851 1 0.19804 0.149954 0.250255
852 2 0.249347 0.0996651 0.250767
853 4 0.301195 0.099389 0.199109
854 1 0.350035 0.150093 0.199339
855 2 0.3007 0.149704 0.251071
856 2 0.350021 0.100522 0.250861
857 2 0.399221 0.101539 0.199706
858 5 0.450282 0.148697 0.198212
859 5 0.39864 0.151096 0.251708
860 3 0.451645 0.100916 0.252484
861 3 0.5026 0.100416 0.200189
862 3 0.550566 0.150438 0.199926
863 2 0.501208 0.150508 0.250702
864 1 0.550996 0.101315 0.250657
865 2 0.598736 0.101164 0.200893
866 2 0.649801 0.153 0.200525
867 1 0.599326 0.152024 0.250708
868 5 0.649303 0.101632 0.250326
869 1 0.700633 0.10265 0.200096
870 4 0.749775 0.151863 0.199542
871 4 0.700096 0.151936 0.250246
872 4 0.74937 0.102775 0.249441
873 5 0.800154 0.101364 0.200169
874 2 0.850248 0.151005 0.200071
875 2 0.799494 0.151886 0.250618
876 3 0.850114 0.102001 0.250115
877 1 0.900733 0.102133 0.198327
878 2 0.951068 0.149584 0.198951
879 1 0.900964 0.150008 0.250477
880 3 0.951109 0.100664 0.249603
881 2 0.99882 0.199847 0.19856
882 5 0.0485574 0.251565 0.196715
883 4 0.998594 0.251945 0.250072
884 5 0.0461962 0.199328 0.250567
885 4 0.100059 0.199903 0.198283
886 2 0.148426 0.250849 0.198372
887 5 0.100826 0.251676 0.250884