ITEM: TIMESTEP
1100
ITEM: NUMBER OF ATOMS
1875
ITEM: BOX BOUNDS xy xz yz pp pp pp
3.8893007076355957e-01 4.0420077496151052e+01 -7.6658418272411485e-03
1.0245462220599535e+00 3.9792082378141245e+01 1.6673408741628645e-02
3.6147907878222441e-01 4.0438520921217531e+01 1.6628600200821530e-02
ITEM: ATOMS id type xs ys zs
1 1 0.346714 0.0327528 0.00184495
2 1 0.396191 0.982658 0.0027964
3 1 0.449396 0.0288261 0.00157396
4 1 0.446406 0.98405 0.055433
5 1 0.395867 0.0322726 0.0534017
6 1 0.502482 0.975474 0.00372586
7 1 0.55186 0.0282523 0.00220162
8 1 0.551593 0.977337 0.0566529
9 1 0.500561 0.0299745 0.0522923
10 1 0.60756 0.982902 0.00176549
11 1 0.654927 0.0332052 0.00169362
12 1 0.60252 0.0318474 0.0520791
13 1 0.244792 0.132766 0.00169026
14 1 0.198895 0.140036 0.0533385
15 1 0.295946 0.0828631 0.0010882
16 1 0.346556 0.135091 0.0013774
17 1 0.345291 0.0836257 0.0517167
18 1 0.293985 0.134167 0.0517176
19 1 0.398377 0.0828566 0.00209234
20 1 0.449533 0.135709 0.00129181
21 1 0.448916 0.0819887 0.051669
22 1 0.397615 0.136156 0.0510944
23 1 0.500493 0.0819085 0.00126912
24 1 0.550915 0.135812 0.0012109
25 1 0.551055 0.0829567 0.0516301
26 1 0.500042 0.136075 0.0508826
27 1 0.601982 0.0825612 0.00131704
28 1 0.652977 0.135402 0.00145078
29 1 0.654329 0.083292 0.0519053
30 1 0.602526 0.136033 0.0512923
31 1 0.704927 0.0831753 0.00228432
32 1 0.755202 0.134401 0.00142916
33 1 0.750969 0.0885424 0.0530163
34 1 0.703059 0.136948 0.0522037
35 1 0.851326 0.138169 0.00156109
36 1 0.802523 0.136401 0.0523869
37 1 1.00022 0.188 0.00358813
38 1 0.0499282 0.239145 0.00188486
39 1 0.0498741 0.191674 0.0514701
40 1 1.00017 0.239939 0.0534946
41 1 0.0983469 0.184913 0.00170683
42 1 0.146755 0.239165 0.00193341
43 1 0.147149 0.187767 0.0523206
44 1 0.0984605 0.239636 0.0536729
45 1 0.195629 0.185371 0.0017182
46 1 0.245857 0.240078 0.00141905
47 1 0.246524 0.188476 0.0523561
48 1 0.195791 0.239495 0.0527453
49 1 0.29563 0.186811 0.00114477
50 1 0.346355 0.240974 0.00119812
51 1 0.345803 0.187775 0.0513368
52 1 0.296037 0.241353 0.0520986
53 1 0.397899 0.188631 0.00108259
54 1 0.448904 0.242253 0.000761273
55 1 0.448924 0.189302 0.0509455
56 1 0.397482 0.241518 0.0510274
57 1 0.50027 0.18941 0.00101676
58 1 0.551135 0.242479 0.000718305
59 1 0.551385 0.189499 0.0509985
60 1 0.500068 0.242306 0.0510283
61 1 0.60196 0.189093 0.00100073
62 1 0.653029 0.24199 0.00100624
63 1 0.652856 0.189305 0.0516992
64 1 0.602358 0.242326 0.0512696
65 1 0.704094 0.188248 0.0014698
66 1 0.753674 0.241549 0.00197449
67 1 0.75392 0.187597 0.0533145
68 1 0.703633 0.241508 0.0521108
69 1 0.803168 0.187948 0.00252167
70 1 0.853305 0.239726 0.00237545
71 1 0.85392 0.186309 0.0537188
72 1 0.803904 0.240451 0.0529533
73 1 0.902902 0.185593 0.00311815
74 1 0.951245 0.239631 0.00206019
75 1 0.950588 0.190923 0.05334
76 1 0.902246 0.241333 0.0528148
77 1 1.00043 0.293114 0.0019324
78 1 0.0486535 0.347864 0.00184739
79 1 0.0487157 0.293646 0.0529493
80 1 0.000135162 0.348545 0.0530917
81 1 0.0981382 0.293497 0.00225565
82 1 0.146889 0.347886 0.00155108
83 1 0.147266 0.293532 0.0527353
84 1 0.0975985 0.348382 0.0524297
85 1 0.196387 0.293709 0.00158588
86 1 0.246223 0.347449 0.00161422
87 1 0.245394 0.293867 0.0526549
88 1 0.195971 0.34772 0.0526481
89 1 0.296217 0.294271 0.00147766
90 1 0.346806 0.347707 0.000973059
91 1 0.346666 0.294466 0.0518301
92 1 0.296263 0.347445 0.0520559
93 1 0.397384 0.294515 0.00106539
94 1 0.448771 0.34795 0.000717685
95 1 0.448753 0.295059 0.0508101
96 1 0.397427 0.347777 0.0510955
97 1 0.50008 0.295242 0.00060444
98 1 0.550927 0.348195 0.000618654
99 1 0.551209 0.295097 0.0511466
100 1 0.500135 0.347926 0.0509837
101 1 0.602065 0.295152 0.000705906
102 1 0.652713 0.348434 0.0012481
103 1 0.653083 0.295223 0.0514902
104 1 0.60191 0.348289 0.0511247
105 1 0.703374 0.295249 0.00138552
106 1 0.753838 0.348821 0.00118161
107 1 0.75384 0.295276 0.0519858
108 1 0.703717 0.348764 0.0516098
109 1 0.803559 0.294679 0.00143844
110 1 0.853152 0.348939 0.00118841
111 1 0.853028 0.295362 0.0521679
112 1 0.803947 0.349312 0.0519381
113 1 0.902187 0.294333 0.00162092
114 1 0.95159 0.347934 0.00179038
115 1 0.951764 0.293906 0.0530504
116 1 0.902856 0.348682 0.0525453
117 1 -0.000156096 0.402496 0.00163414
118 1 0.0483573 0.457385 0.00232661
119 1 0.0481808 0.402969 0.0533782
120 1 -0.000249887 0.45666 0.0529013
121 1 0.0971191 0.402189 0.00173004
122 1 0.14664 0.455207 0.00191419
123 1 0.146483 0.401793 0.052305
124 1 0.09641 0.45648 0.0536209
125 1 0.196529 0.401104 0.00143156
126 1 0.246472 0.454172 0.00139292
127 1 0.246227 0.400664 0.0522574
128 1 0.196631 0.454228 0.0522999
129 1 0.296626 0.400899 0.00126459
130 1 0.347062 0.453897 0.000961069
131 1 0.347029 0.400814 0.0516449
132 1 0.296455 0.454184 0.051809
133 1 0.397905 0.401061 0.000833812
134 1 0.448852 0.453791 0.00067537
135 1 0.448636 0.400689 0.051182
136 1 0.397824 0.453867 0.0513966
137 1 0.499854 0.401111 0.00100058
138 1 0.55068 0.454298 0.00098429
139 1 0.550975 0.401317 0.0511237
140 1 0.49954 0.454063 0.0512665
141 1 0.601821 0.40154 0.000864873
142 1 0.652469 0.454858 0.000770778
143 1 0.652574 0.401746 0.0512966
144 1 0.601697 0.454726 0.0511372
145 1 0.703235 0.40191 0.00107161
146 1 0.753431 0.45574 0.000907243
147 1 0.753773 0.402594 0.0515266
148 1 0.702977 0.455265 0.0513403
149 1 0.8037 0.402713 0.00121298
150 1 0.853656 0.45642 0.00166289
151 1 0.854093 0.403026 0.0523277
152 1 0.803888 0.456409 0.05177
153 1 0.902922 0.402712 0.00170793
154 1 0.951177 0.457701 0.00223437
155 1 0.951698 0.403128 0.0533174
156 1 0.903758 0.45788 0.0535393
157 1 0.999189 0.512123 0.00348553
158 1 0.0481938 0.562851 0.00318245
159 1 0.048363 0.511168 0.0539163
160 1 0.0979795 0.510384 0.00275395
161 1 0.149295 0.562783 0.00323621
162 1 0.147186 0.508102 0.0530356
163 1 0.0995755 0.560496 0.0524151
164 1 0.196621 0.50842 0.00220324
165 1 0.244369 0.562732 0.00254069
166 1 0.24581 0.508312 0.0520593
167 1 0.196022 0.56229 0.053974
168 1 0.296191 0.507765 0.00150603
169 1 0.347578 0.559478 0.00113562
170 1 0.347051 0.506836 0.0515171
171 1 0.295974 0.560267 0.0520032
172 1 0.398133 0.506499 0.000708962
173 1 0.44919 0.559361 0.000574816
174 1 0.44877 0.506916 0.0512992
175 1 0.398153 0.559649 0.0514378
176 1 0.499911 0.50688 0.00069119
177 1 0.550539 0.560055 0.000503313
178 1 0.550581 0.507314 0.0513461
179 1 0.4997 0.559941 0.0512122
180 1 0.601458 0.507766 0.000884298
181 1 0.651957 0.561251 0.000779337
182 1 0.652382 0.508343 0.051075
183 1 0.601138 0.560824 0.0511738
184 1 0.702802 0.508737 0.000823862
185 1 0.753188 0.56326 0.0013083
186 1 0.752904 0.508542 0.0513825
187 1 0.703227 0.562236 0.0512364
188 1 0.803582 0.509789 0.0010101
189 1 0.853696 0.564852 0.00140112
190 1 0.853407 0.51072 0.0524561
191 1 0.802309 0.561758 0.0515816
192 1 0.902588 0.511151 0.00230135
193 1 0.949977 0.564143 0.00144319
194 1 0.951785 0.512603 0.0538254
195 1 0.901295 0.562486 0.0523066
196 1 0.0989379 0.608305 0.000401074
197 1 0.250682 0.661936 0.0027411
198 1 0.246848 0.612733 0.0523973
199 1 0.297059 0.612105 0.00180384
200 1 0.346813 0.6635 0.00161055
201 1 0.346922 0.612604 0.052674
202 1 0.296484 0.664152 0.0536867
203 1 0.398103 0.612032 0.000882067
204 1 0.448482 0.665518 0.00051133
205 1 0.44878 0.612339 0.0510359
206 1 0.397371 0.664674 0.051882
207 1 0.499867 0.612837 0.000306553
208 1 0.550612 0.66691 0.000789534
209 1 0.550265 0.613141 0.0508934
210 1 0.499315 0.665353 0.0507205
211 1 0.601631 0.614162 0.000775297
212 1 0.653438 0.66871 0.00186474
213 1 0.652141 0.614451 0.0508812
214 1 0.6011 0.666717 0.0509795
215 1 0.702566 0.615014 0.00162196
216 1 0.751981 0.664274 0.000565975
217 1 0.754102 0.616791 0.0522888
218 1 0.702101 0.66688 0.0508557
219 1 0.803645 0.61651 0.00227525
220 1 0.850149 0.610189 0.0531267
221 1 0.298642 0.711541 0.00267698
222 1 0.346985 0.714211 0.0517319
223 1 0.395548 0.717074 0.00136759
224 1 0.445755 0.770926 0.0021818
225 1 0.447822 0.716777 0.0513217
226 1 0.396977 0.763704 0.0526076
227 1 0.499072 0.720081 0.000742223
228 1 0.551592 0.773434 0.00319488
229 1 0.550687 0.718315 0.051625
230 1 0.498898 0.768104 0.053781
231 1 0.60317 0.722086 0.00245739
232 1 0.649451 0.717282 0.0533902
233 1 0.598851 0.769376 0.0557683
234 1 0.444039 0.862545 0.00821244
235 1 0.444978 0.813537 0.0567595
236 1 0.500754 0.822124 0.00825816
237 1 0.566437 0.857765 0.00685991
238 1 0.54815 0.821437 0.0610376
239 1 0.489314 0.865023 0.064588
240 1 0.611287 0.807839 0.00111848
241 1 0.44631 0.933535 0.00801366
242 1 0.506318 0.896285 0.00628412
243 1 0.565636 0.931053 0.00657123
244 1 0.549956 0.896027 0.0626978
245 1 0.494284 0.93505 0.0614499
246 1 0.348842 0.0382342 0.10364
247 1 0.4473 0.0324472 0.104839
248 1 0.398022 0.0372175 0.152208
249 1 0.499817 0.985652 0.105328
250 1 0.5505 0.0329606 0.104211
251 1 0.499343 0.0340519 0.154054
252 1 0.600409 0.98775 0.102941
253 1 0.650528 0.0353781 0.102614
254 1 0.60128 0.0352006 0.152595
255 1 0.24687 0.137077 0.102615
256 1 0.298033 0.0865816 0.102973
257 1 0.345927 0.136177 0.102136
258 1 0.346416 0.0854495 0.153429
259 1 0.295493 0.135746 0.153289
260 1 0.397756 0.0858181 0.101763
261 1 0.44906 0.136975 0.10093
262 1 0.448848 0.0862359 0.152027
263 1 0.396739 0.136232 0.152729
264 1 0.499279 0.0836801 0.101698
265 1 0.551018 0.137159 0.101011
266 1 0.550795 0.0861137 0.151794
267 1 0.500242 0.137143 0.152121
268 1 0.60208 0.0846446 0.101949
269 1 0.653396 0.136142 0.102826
270 1 0.652759 0.0844029 0.152649
271 1 0.603051 0.13618 0.15298
272 1 0.702192 0.0852211 0.102086
273 1 0.753127 0.13565 0.103577
274 1 0.70416 0.134668 0.154175
275 1 0.0487374 0.242175 0.102797
276 1 0.146138 0.239239 0.103922
277 1 0.096739 0.246933 0.149378
278 1 0.196241 0.188352 0.103339
279 1 0.244961 0.240606 0.103918
280 1 0.245141 0.187724 0.153152
281 1 0.194545 0.240551 0.154288
282 1 0.295636 0.187814 0.103043
283 1 0.346756 0.241039 0.101892
284 1 0.346136 0.187707 0.15301
285 1 0.29572 0.240703 0.152663
286 1 0.39724 0.188704 0.101534
287 1 0.44832 0.24185 0.101091
288 1 0.448475 0.188893 0.151524
289 1 0.397544 0.241123 0.152156
290 1 0.50008 0.189462 0.101191
291 1 0.551447 0.241991 0.101408
292 1 0.551718 0.189054 0.151909
293 1 0.499849 0.241724 0.151298
294 1 0.602609 0.189091 0.101888
295 1 0.653284 0.242035 0.102272
296 1 0.653456 0.188007 0.153435
297 1 0.602675 0.241532 0.152153
298 1 0.703714 0.188325 0.103724
299 1 0.75417 0.241606 0.102735
300 1 0.754875 0.188272 0.152744
301 1 0.703921 0.242212 0.152829
302 1 0.804673 0.186471 0.103566
303 1 0.852958 0.242317 0.103004
304 1 0.852918 0.192917 0.152472
305 1 0.80377 0.242402 0.153031
306 1 0.901808 0.192798 0.103035
307 1 0.952355 0.241435 0.104312
308 1 0.903337 0.242658 0.15357
309 1 0.000183895 0.294483 0.104345
310 1 0.0483777 0.348777 0.103924
311 1 0.0488435 0.296289 0.151506
312 1 4.82573e-06 0.349077 0.15362
313 1 0.0979079 0.295648 0.102596
314 1 0.146215 0.348029 0.10436
315 1 0.145442 0.294017 0.154978
316 1 0.0965047 0.347419 0.155342
317 1 0.194752 0.293147 0.104128
318 1 0.245383 0.347232 0.103097
319 1 0.244375 0.293489 0.154113
320 1 0.195285 0.347259 0.154141
321 1 0.295633 0.294205 0.102775
322 1 0.346759 0.347444 0.102146
323 1 0.346922 0.294127 0.151961
324 1 0.295698 0.347198 0.152958
325 1 0.397811 0.294513 0.101462
326 1 0.448698 0.347503 0.101025
327 1 0.448617 0.294235 0.151582
328 1 0.397875 0.347238 0.151816
329 1 0.499855 0.294592 0.101112
330 1 0.551087 0.347924 0.10133
331 1 0.551165 0.294395 0.151374
332 1 0.499631 0.34733 0.151069
333 1 0.602476 0.295042 0.101671
334 1 0.652781 0.348552 0.101506
335 1 0.653252 0.295386 0.152305
336 1 0.602019 0.348212 0.15161
337 1 0.703631 0.295577 0.102007
338 1 0.754024 0.349442 0.102434
339 1 0.753858 0.295861 0.152683
340 1 0.703443 0.349161 0.15224
341 1 0.80366 0.296211 0.102572
342 1 0.854452 0.349235 0.103356
343 1 0.854184 0.295638 0.153516
344 1 0.804908 0.349398 0.15379
345 1 0.903474 0.294714 0.103996
346 1 0.952156 0.348779 0.103993
347 1 0.952199 0.29565 0.153652
348 1 0.905188 0.349314 0.155133
349 1 5.83348e-05 0.403452 0.105264
350 1 0.0478655 0.456205 0.105477
351 1 0.0499468 0.400712 0.152475
352 1 0.0973733 0.401763 0.103583
353 1 0.146234 0.455019 0.103676
354 1 0.144415 0.400705 0.155542
355 1 0.0979247 0.454225 0.152932
356 1 0.195502 0.401045 0.103604
357 1 0.246391 0.453731 0.102645
358 1 0.245208 0.400512 0.154022
359 1 0.195724 0.45395 0.153636
360 1 0.296306 0.400407 0.102599
361 1 0.346812 0.453966 0.102016
362 1 0.34682 0.400356 0.152383
363 1 0.296085 0.453652 0.152992
364 1 0.39764 0.400488 0.101709
365 1 0.44868 0.453799 0.10147
366 1 0.448749 0.400446 0.151403
367 1 0.39779 0.453596 0.151832
368 1 0.499726 0.400802 0.101241
369 1 0.550537 0.454368 0.101364
370 1 0.550841 0.400983 0.15121
371 1 0.499686 0.45393 0.151574
372 1 0.601878 0.401625 0.101433
373 1 0.652623 0.455083 0.101505
374 1 0.652706 0.401963 0.151704
375 1 0.601704 0.455094 0.151384
376 1 0.703356 0.402199 0.10185
377 1 0.753759 0.455878 0.102169
378 1 0.754432 0.402685 0.152541
379 1 0.703595 0.455494 0.152335
380 1 0.804292 0.403026 0.102351
381 1 0.854244 0.457289 0.103043
382 1 0.854285 0.403156 0.153138
383 1 0.804678 0.456729 0.15311
384 1 0.903685 0.403442 0.10403
385 1 0.952148 0.45727 0.105313
386 1 0.951907 0.402761 0.153958
387 1 0.902977 0.456698 0.153533
388 1 8.05389e-05 0.505663 0.100515
389 1 0.0970712 0.508347 0.103718
390 1 0.147979 0.557161 0.102801
391 1 0.146598 0.507143 0.153004
392 1 0.196797 0.507289 0.103149
393 1 0.245178 0.561249 0.102896
394 1 0.24562 0.507258 0.153731
395 1 0.196916 0.558549 0.152605
396 1 0.295843 0.507358 0.102407
397 1 0.346833 0.559415 0.101868
398 1 0.346934 0.506806 0.15242
399 1 0.296113 0.559729 0.153207
400 1 0.397892 0.506836 0.101775
401 1 0.448577 0.560127 0.101989
402 1 0.448617 0.506779 0.152009
403 1 0.397946 0.559388 0.152427
404 1 0.499474 0.507308 0.101739
405 1 0.550185 0.560624 0.101656
406 1 0.550402 0.507674 0.15159
407 1 0.499208 0.560888 0.152257
408 1 0.601693 0.507969 0.101386
409 1 0.652539 0.56171 0.101273
410 1 0.652418 0.508621 0.151981
411 1 0.601145 0.560798 0.151624
412 1 0.702757 0.508604 0.101907
413 1 0.752549 0.561586 0.102156
414 1 0.754074 0.50946 0.153092
415 1 0.703015 0.562558 0.152329
416 1 0.803602 0.509826 0.10277
417 1 0.852671 0.561847 0.103027
418 1 0.853354 0.509377 0.152723
419 1 0.802936 0.561683 0.152386
420 1 0.902966 0.510528 0.1032
421 1 0.247935 0.609584 0.153091
422 1 0.2957 0.612475 0.102522
423 1 0.346143 0.665017 0.103814
424 1 0.347392 0.610912 0.152593
425 1 0.298466 0.658509 0.153388
426 1 0.397542 0.612887 0.102586
427 1 0.447538 0.664943 0.102491
428 1 0.448123 0.613717 0.153373
429 1 0.396333 0.665198 0.154114
430 1 0.499198 0.613092 0.101613
431 1 0.550599 0.665841 0.101983
432 1 0.549948 0.613794 0.152801
433 1 0.499167 0.665149 0.153056
434 1 0.600944 0.613838 0.101604
435 1 0.652347 0.665567 0.100529
436 1 0.651903 0.614052 0.151551
437 1 0.600245 0.665611 0.153567
438 1 0.703944 0.615464 0.100835
439 1 0.752078 0.613121 0.151278
440 1 0.700896 0.663011 0.151444
441 1 0.80161 0.610921 0.101842
442 1 0.396293 0.714796 0.102593
443 1 0.44622 0.76415 0.104593
444 1 0.446937 0.714668 0.153903
445 1 0.49877 0.715632 0.102573
446 1 0.549199 0.766458 0.105067
447 1 0.550257 0.716105 0.153884
448 1 0.49774 0.762173 0.15285
449 1 0.601272 0.717503 0.103535
450 1 0.650862 0.709968 0.150514
451 1 0.496355 0.812376 0.106524
452 1 0.448283 0.0380354 0.20003
453 1 0.550907 0.0382386 0.199873
454 1 0.345862 0.135114 0.204006
455 1 0.298081 0.141083 0.252881
456 1 0.397417 0.0849456 0.202928
457 1 0.448088 0.136228 0.202632
458 1 0.449424 0.0852006 0.251515
459 1 0.396988 0.134093 0.253658
460 1 0.499745 0.0845356 0.203719
461 1 0.551899 0.136055 0.202883
462 1 0.55008 0.0852257 0.251604
463 1 0.499919 0.13715 0.25191
464 1 0.602234 0.0848445 0.20276
465 1 0.654355 0.134394 0.204287
466 1 0.603227 0.133655 0.253887
467 1 0.752522 0.14223 0.203314
468 1 0.704204 0.139851 0.252554
469 1 0.245152 0.239995 0.202571
470 1 0.24789 0.190427 0.252669
471 1 0.200519 0.242444 0.253187
472 1 0.295321 0.18766 0.202286
473 1 0.346613 0.241011 0.202328
474 1 0.347223 0.188737 0.252322
475 1 0.295934 0.240253 0.253303
476 1 0.397283 0.187637 0.202794
477 1 0.448635 0.241113 0.202055
478 1 0.448216 0.187358 0.252878
479 1 0.398002 0.241082 0.2523
480 1 0.499905 0.189171 0.201674
481 1 0.551162 0.241106 0.201814
482 1 0.551642 0.187183 0.252888
483 1 0.499993 0.240444 0.252016
484 1 0.602831 0.187607 0.20332
485 1 0.652878 0.242181 0.202782
486 1 0.652995 0.188021 0.25279
487 1 0.601697 0.24143 0.251979
488 1 0.703458 0.189536 0.202897
489 1 0.754709 0.241726 0.203594
490 1 0.755634 0.189702 0.253246
491 1 0.704543 0.241575 0.252957
492 1 0.803936 0.191127 0.20228
493 1 0.854313 0.242617 0.202751
494 1 0.806102 0.242457 0.252839
495 1 0.147447 0.34674 0.202485
496 1 0.193841 0.292864 0.205201
497 1 0.244225 0.346818 0.203738
498 1 0.24664 0.294017 0.252391
499 1 0.194293 0.346112 0.253653
500 1 0.296238 0.293644 0.202466
501 1 0.346691 0.346939 0.202547
502 1 0.3466 0.293603 0.252988
503 1 0.295556 0.347073 0.253212
504 1 0.397546 0.294323 0.202162
505 1 0.448851 0.34713 0.201684
506 1 0.449032 0.293939 0.251811
507 1 0.397907 0.347119 0.252091
508 1 0.499979 0.294025 0.20154
509 1 0.550711 0.347694 0.201144
510 1 0.550925 0.294348 0.251416
511 1 0.499864 0.347337 0.251258
512 1 0.601897 0.294909 0.201649
513 1 0.652991 0.348499 0.202048
514 1 0.653059 0.295165 0.252123
515 1 0.601769 0.34811 0.251229
516 1 0.7041 0.295497 0.203071
517 1 0.75416 0.349063 0.202675
518 1 0.756097 0.294969 0.253571
519 1 0.704514 0.348891 0.252531
520 1 0.804912 0.295164 0.203213
521 1 0.856429 0.349263 0.204831
522 1 0.854561 0.295831 0.251362
523 1 0.804961 0.349087 0.251812
524 1 0.902243 0.295382 0.201342
525 1 0.147642 0.454666 0.201253
526 1 0.193292 0.400396 0.205674
527 1 0.244321 0.453678 0.203987
528 1 0.244602 0.399731 0.252881
529 1 0.193698 0.454181 0.253205
530 1 0.295948 0.400243 0.202964
531 1 0.347015 0.453527 0.202304
532 1 0.346896 0.400219 0.252318
533 1 0.295864 0.453746 0.252392
534 1 0.397902 0.400257 0.201885
535 1 0.448654 0.453564 0.201689
536 1 0.448989 0.40051 0.251332
537 1 0.397617 0.45358 0.252222
538 1 0.499841 0.400534 0.201084
539 1 0.550958 0.454322 0.201163
540 1 0.55095 0.401072 0.250897
541 1 0.499995 0.454038 0.250936
542 1 0.601905 0.401574 0.20134
543 1 0.652536 0.455333 0.201719
544 1 0.652893 0.401848 0.251526
545 1 0.601912 0.454798 0.251349
546 1 0.703868 0.402299 0.202316
547 1 0.755146 0.456239 0.202967
548 1 0.755719 0.402943 0.252682
549 1 0.703776 0.455733 0.251523
550 1 0.805542 0.403276 0.203165
551 1 0.854287 0.456608 0.202708
552 1 0.854684 0.402659 0.251459
553 1 0.806489 0.456466 0.253095
554 1 0.901913 0.403758 0.20117
555 1 0.195056 0.507254 0.203122
556 1 0.245194 0.55987 0.203008
557 1 0.244248 0.507431 0.252322
558 1 0.295661 0.506888 0.20307
559 1 0.346188 0.560127 0.203674
560 1 0.346352 0.506699 0.25267
561 1 0.294602 0.559745 0.252856
562 1 0.397561 0.506691 0.202428
563 1 0.448778 0.560215 0.202413
564 1 0.448571 0.507006 0.251604
565 1 0.396985 0.560281 0.252405
566 1 0.499702 0.507326 0.201698
567 1 0.550341 0.560891 0.202017
568 1 0.550949 0.507795 0.251439
569 1 0.49965 0.560608 0.25193
570 1 0.601614 0.508351 0.201936
571 1 0.652759 0.562448 0.202258
572 1 0.653151 0.508753 0.251593
573 1 0.602211 0.561974 0.252069
574 1 0.703619 0.509283 0.201823
575 1 0.753872 0.562684 0.201751
576 1 0.754653 0.509964 0.250964
577 1 0.704214 0.562482 0.251203
578 1 0.804592 0.509378 0.202763
579 1 0.295758 0.611584 0.203685
580 1 0.347066 0.660603 0.202062
581 1 0.345181 0.61347 0.253629
582 1 0.397502 0.612275 0.203299
583 1 0.44704 0.666291 0.204867
584 1 0.448501 0.61355 0.252853
585 1 0.397047 0.662457 0.252227
586 1 0.499304 0.615006 0.20357
587 1 0.550982 0.667312 0.20475
588 1 0.550585 0.614345 0.252389
589 1 0.499211 0.666914 0.253838
590 1 0.601445 0.613635 0.202474
591 1 0.651448 0.664359 0.201475
592 1 0.653548 0.615347 0.25243
593 1 0.60156 0.663779 0.251625
594 1 0.70302 0.614672 0.20201
595 1 0.498518 0.713551 0.201741
596 1 0.347402 0.138731 0.301207
597 1 0.447579 0.133679 0.303342
598 1 0.397992 0.137063 0.351451
599 1 0.499555 0.0883871 0.29872
600 1 0.552077 0.133465 0.303447
601 1 0.499975 0.133234 0.352345
602 1 0.654251 0.137712 0.302692
603 1 0.603318 0.136362 0.35165
604 1 0.702806 0.14197 0.351914
605 1 0.24552 0.239737 0.303613
606 1 0.29569 0.187557 0.30328
607 1 0.346563 0.239332 0.303021
608 1 0.346084 0.185307 0.35279
609 1 0.295802 0.239353 0.351643
610 1 0.397854 0.187361 0.302532
611 1 0.449317 0.240106 0.30213
612 1 0.449081 0.185992 0.352205
613 1 0.397818 0.239043 0.351843
614 1 0.499919 0.185794 0.302976
615 1 0.55069 0.240651 0.301625
616 1 0.551024 0.186333 0.351498
617 1 0.500052 0.23994 0.351524
618 1 0.601945 0.187264 0.301854
619 1 0.653145 0.241542 0.301353
620 1 0.652748 0.189401 0.351001
621 1 0.601568 0.241167 0.35083
622 1 0.705452 0.188775 0.301982
623 1 0.756861 0.241857 0.302024
624 1 0.754339 0.191995 0.351504
625 1 0.705152 0.242475 0.350431
626 1 0.803224 0.245196 0.351645
627 1 0.199557 0.292986 0.299881
628 1 0.243146 0.346709 0.303627
629 1 0.244059 0.292279 0.352136
630 1 0.294836 0.293288 0.303201
631 1 0.346977 0.346805 0.302175
632 1 0.346987 0.292961 0.35132
633 1 0.295205 0.346567 0.351512
634 1 0.398066 0.293175 0.301988
635 1 0.448981 0.347011 0.30136
636 1 0.449051 0.293355 0.351292
637 1 0.398179 0.346898 0.351175
638 1 0.500014 0.293828 0.301384
639 1 0.55076 0.347727 0.30093
640 1 0.55088 0.294125 0.351025
641 1 0.499947 0.347431 0.350541
642 1 0.601752 0.294761 0.301256
643 1 0.652956 0.348551 0.301145
644 1 0.653164 0.295115 0.35045
645 1 0.601808 0.348116 0.350493
646 1 0.704873 0.295537 0.30163
647 1 0.757196 0.349479 0.302275
648 1 0.756815 0.296557 0.350828
649 1 0.704668 0.348984 0.350683
650 1 0.808377 0.295253 0.302781
651 1 0.853109 0.349315 0.297406
652 1 0.809158 0.349647 0.350309
653 1 0.195875 0.401538 0.300629
654 1 0.245502 0.452922 0.301315
655 1 0.243819 0.399589 0.350988
656 1 0.197605 0.45188 0.349944
657 1 0.295612 0.399818 0.302315
658 1 0.346342 0.453588 0.302402
659 1 0.346727 0.400414 0.351524
660 1 0.294173 0.453435 0.352284
661 1 0.398036 0.400418 0.301641
662 1 0.449017 0.454185 0.301054
663 1 0.449067 0.400903 0.350608
664 1 0.397805 0.454189 0.351196
665 1 0.499884 0.401029 0.300715
666 1 0.550731 0.454586 0.300861
667 1 0.550758 0.401219 0.350418
668 1 0.499788 0.454747 0.350674
669 1 0.601809 0.401474 0.300834
670 1 0.653101 0.455181 0.301251
671 1 0.653032 0.401852 0.350573
672 1 0.601688 0.454757 0.350619
673 1 0.704214 0.402064 0.301562
674 1 0.754468 0.455659 0.301012
675 1 0.756532 0.402866 0.350739
676 1 0.705 0.456133 0.351011
677 1 0.807984 0.403631 0.302384
678 1 0.8036 0.456537 0.348736
679 1 0.198908 0.5034 0.30223
680 1 0.246391 0.556492 0.303034
681 1 0.243724 0.50637 0.352988
682 1 0.294862 0.506852 0.302981
683 1 0.34628 0.55945 0.302523
684 1 0.34604 0.507463 0.351851
685 1 0.294729 0.560535 0.352368
686 1 0.397559 0.507123 0.302097
687 1 0.44788 0.560394 0.301556
688 1 0.448347 0.507965 0.351451
689 1 0.396752 0.561963 0.352209
690 1 0.499604 0.507629 0.301077
691 1 0.551179 0.561294 0.301211
692 1 0.550831 0.508236 0.350694
693 1 0.499577 0.560803 0.350886
694 1 0.601804 0.508013 0.301263
695 1 0.65293 0.561302 0.301377
696 1 0.652954 0.508482 0.350848
697 1 0.602247 0.562473 0.350717
698 1 0.704585 0.508887 0.301473
699 1 0.752368 0.559723 0.301191
700 1 0.756006 0.510218 0.351789
701 1 0.704039 0.561961 0.350765
702 1 0.800154 0.507323 0.300507
703 1 0.29699 0.607217 0.302254
704 1 0.346617 0.612863 0.350685
705 1 0.39599 0.613444 0.3015
706 1 0.447963 0.664478 0.301731
707 1 0.448603 0.613104 0.35063
708 1 0.399422 0.66082 0.350405
709 1 0.499607 0.614064 0.301584
710 1 0.550984 0.665039 0.301355
711 1 0.550402 0.614071 0.350849
712 1 0.499609 0.665252 0.350246
713 1 0.603076 0.615235 0.301441
714 1 0.653115 0.615274 0.350555
715 1 0.599164 0.662769 0.350949
716 1 0.70191 0.609779 0.301445
717 1 0.448825 0.135288 0.40131
718 1 0.400115 0.138022 0.450474
719 1 0.551788 0.135216 0.400864
720 1 0.499766 0.134748 0.450124
721 1 0.653782 0.138092 0.400363
722 1 0.60316 0.135865 0.449429
723 1 0.703472 0.141628 0.448106
724 1 0.249111 0.241238 0.400352
725 1 0.297871 0.190849 0.401444
726 1 0.347172 0.239665 0.401048
727 1 0.346185 0.185295 0.450453
728 1 0.295813 0.240154 0.449401
729 1 0.396597 0.185556 0.401323
730 1 0.448645 0.239252 0.400952
731 1 0.4493 0.186576 0.450401
732 1 0.397487 0.238765 0.450284
733 1 0.500307 0.185726 0.400971
734 1 0.550898 0.240288 0.400735
735 1 0.551057 0.185966 0.450041
736 1 0.500072 0.239856 0.450163
737 1 0.601848 0.187467 0.400584
738 1 0.653361 0.242034 0.399971
739 1 0.653137 0.189063 0.449427
740 1 0.601925 0.24116 0.449663
741 1 0.705222 0.190328 0.400159
742 1 0.756751 0.242755 0.399957
743 1 0.754896 0.192012 0.448351
744 1 0.705134 0.242299 0.449414
745 1 0.805279 0.245333 0.448237
746 1 0.242297 0.346143 0.398603
747 1 0.242928 0.293435 0.446851
748 1 0.196643 0.348553 0.449999
749 1 0.295631 0.293581 0.39997
750 1 0.346913 0.347037 0.400215
751 1 0.346922 0.293677 0.44935
752 1 0.294247 0.346738 0.448155
753 1 0.398191 0.293212 0.400698
754 1 0.44923 0.347158 0.400238
755 1 0.448914 0.293249 0.449856
756 1 0.398222 0.347195 0.449494
757 1 0.499891 0.293569 0.400482
758 1 0.550672 0.347656 0.400034
759 1 0.550913 0.294109 0.449726
760 1 0.499978 0.347347 0.449705
761 1 0.602043 0.294669 0.400167
762 1 0.65312 0.348435 0.399797
763 1 0.653446 0.295122 0.449297
764 1 0.601883 0.347917 0.449452
765 1 0.704993 0.295526 0.399489
766 1 0.757707 0.349824 0.398968
767 1 0.755801 0.296111 0.448104
768 1 0.704729 0.349212 0.448348
769 1 0.8084 0.296916 0.399745
770 1 0.851033 0.352911 0.402488
771 1 0.805561 0.350102 0.44943
772 1 0.198206 0.400588 0.400481
773 1 0.242812 0.454392 0.401848
774 1 0.244437 0.400553 0.449234
775 1 0.294399 0.400355 0.400378
776 1 0.346851 0.453861 0.400801
777 1 0.346835 0.40044 0.449182
778 1 0.295509 0.454347 0.449595
779 1 0.398379 0.400703 0.400302
780 1 0.448879 0.454675 0.400376
781 1 0.449125 0.401035 0.449546
782 1 0.397839 0.454658 0.449786
783 1 0.499954 0.40099 0.399978
784 1 0.550666 0.454719 0.400205
785 1 0.550748 0.401048 0.44976
786 1 0.49987 0.454562 0.449679
787 1 0.60163 0.40133 0.400068
788 1 0.652784 0.45479 0.400094
789 1 0.653053 0.401786 0.449088
790 1 0.601624 0.454755 0.449758
791 1 0.704998 0.40274 0.399565
792 1 0.756871 0.457747 0.399756
793 1 0.756441 0.403628 0.447799
794 1 0.704696 0.456182 0.448819
795 1 0.807965 0.405561 0.398475
796 1 0.852418 0.403374 0.451852
797 1 0.805928 0.456981 0.449353
798 1 0.248548 0.555563 0.401218
799 1 0.243872 0.507225 0.449276
800 1 0.295914 0.506682 0.401189
801 1 0.344905 0.562429 0.400458
802 1 0.34625 0.509211 0.45004
803 1 0.29475 0.561252 0.449984
804 1 0.396899 0.50839 0.400728
805 1 0.447716 0.562174 0.401163
806 1 0.448572 0.508233 0.449848
807 1 0.396851 0.562014 0.449993
808 1 0.499732 0.50836 0.400454
809 1 0.551271 0.561786 0.400408
810 1 0.550857 0.508591 0.449868
811 1 0.499263 0.561819 0.449953
812 1 0.601476 0.508191 0.400255
813 1 0.652152 0.561648 0.400292
814 1 0.652568 0.508472 0.449634
815 1 0.602002 0.562839 0.450171
816 1 0.703724 0.508766 0.4002
817 1 0.750196 0.560518 0.40042
818 1 0.756046 0.510135 0.44885
819 1 0.703377 0.561697 0.449802
820 1 0.34654 0.610176 0.44978
821 1 0.396012 0.61583 0.401749
822 1 0.449691 0.663473 0.398548
823 1 0.447565 0.616176 0.449785
824 1 0.499537 0.614321 0.400338
825 1 0.550008 0.664972 0.400079
826 1 0.550336 0.614238 0.450034
827 1 0.499864 0.665087 0.449543
828 1 0.603135 0.615497 0.400365
829 1 0.652791 0.615342 0.450304
830 1 0.598617 0.662773 0.449748
831 1 0.700558 0.610077 0.400478
832 1 0.448347 0.135165 0.49926
833 1 0.397689 0.136751 0.549045
834 1 0.551451 0.132902 0.498226
835 1 0.551512 0.0885453 0.552006
836 1 0.498973 0.132845 0.547618
837 1 0.654796 0.137232 0.497388
838 1 0.603925 0.13346 0.546598
839 1 0.704127 0.139279 0.547822
840 1 0.244188 0.241107 0.496
841 1 0.246438 0.193032 0.546222
842 1 0.195886 0.242033 0.546576
843 1 0.295192 0.190347 0.498204
844 1 0.346373 0.239386 0.498465
845 1 0.34472 0.184694 0.546665
846 1 0.295492 0.240599 0.547093
847 1 0.396543 0.185799 0.499571
848 1 0.448681 0.239732 0.49949
849 1 0.448484 0.186324 0.548167
850 1 0.39693 0.239427 0.548039
851 1 0.500121 0.185624 0.499408
852 1 0.550978 0.240066 0.499105
853 1 0.551256 0.185374 0.547567
854 1 0.500047 0.240239 0.548273
855 1 0.602089 0.186538 0.498555
856 1 0.653505 0.241275 0.49859
857 1 0.653444 0.187878 0.547102
858 1 0.601877 0.240712 0.547992
859 1 0.706029 0.188372 0.497966
860 1 0.757594 0.241292 0.497635
861 1 0.755498 0.188396 0.54696
862 1 0.704978 0.241295 0.546826
863 1 0.848995 0.247635 0.498188
864 1 0.805643 0.240834 0.547169
865 1 0.146694 0.293835 0.54677
866 1 0.100887 0.346951 0.549802
867 1 0.195418 0.294181 0.497144
868 1 0.244796 0.346555 0.497541
869 1 0.24478 0.292805 0.546199
870 1 0.192583 0.347265 0.543632
871 1 0.294958 0.293272 0.497067
872 1 0.346689 0.347024 0.498149
873 1 0.346436 0.29344 0.547717
874 1 0.296 0.34661 0.54732
875 1 0.397805 0.293397 0.498943
876 1 0.44896 0.347224 0.498984
877 1 0.448874 0.293782 0.5485
878 1 0.397749 0.347051 0.548217
879 1 0.499919 0.293927 0.499198
880 1 0.551061 0.347542 0.49929
881 1 0.550824 0.294276 0.548548
882 1 0.499718 0.347602 0.548784
883 1 0.602113 0.294318 0.498883
884 1 0.653327 0.348325 0.498383
885 1 0.653299 0.294974 0.547689
886 1 0.602078 0.347951 0.548408
887 1 0.70496 0.295131 0.498104
888 1 0.754444 0.349971 0.498303
889 1 0.75538 0.294883 0.546991
890 1 0.703885 0.348726 0.547906
891 1 0.805452 0.297546 0.49707
892 1 0.85563 0.349236 0.497225
893 1 0.855882 0.295485 0.546113
894 1 0.805814 0.349032 0.547083
895 1 0.902788 0.348569 0.54799
896 1 0.146025 0.400567 0.546472