ITEM: TIMESTEP
1100
ITEM: NUMBER OF ATOMS
1875
ITEM: BOX BOUNDS xy xz yz pp pp pp
3.8893007076355957e-01 4.0420077496151052e+01 -7.6658418272411485e-03
1.0245462220599535e+00 3.9792082378141245e+01 1.6673408741628645e-02
3.6147907878222441e-01 4.0438520921217531e+01 1.6628600200821530e-02
ITEM: ATOMS id type xs ys zs
1 1 0.347066 0.032357 0.000930121
2 1 0.396026 0.982433 0.00204778
3 1 0.449447 0.0281507 0.00136868
4 1 0.446579 0.983604 0.0556711
5 1 0.396623 0.0317853 0.0531841
6 1 0.502657 0.975181 0.0039269
7 1 0.551717 0.0283817 0.00181824
8 1 0.55164 0.977186 0.0568933
9 1 0.500704 0.0295675 0.0522576
10 1 0.607113 0.983057 0.00069277
11 1 0.65471 0.0334706 0.00104492
12 1 0.602747 0.0313433 0.0514525
13 1 0.245523 0.132535 0.00144111
14 1 0.19958 0.138922 0.0526273
15 1 0.296438 0.0823186 0.000572513
16 1 0.346977 0.134331 0.00117042
17 1 0.346246 0.0828696 0.0513624
18 1 0.294951 0.133546 0.0513952
19 1 0.398757 0.0821996 0.00189726
20 1 0.449661 0.134915 0.000923646
21 1 0.449552 0.0814125 0.0518027
22 1 0.398278 0.135449 0.0509762
23 1 0.500374 0.08142 0.000918585
24 1 0.55096 0.135276 0.000941839
25 1 0.551404 0.0822574 0.051588
26 1 0.50039 0.13505 0.051094
27 1 0.602108 0.082826 0.00100176
28 1 0.652965 0.135699 0.000877523
29 1 0.654333 0.0831241 0.0514351
30 1 0.602571 0.135728 0.0511835
31 1 0.704815 0.0834407 0.00183932
32 1 0.754785 0.135509 0.000880111
33 1 0.751673 0.089197 0.0519412
34 1 0.703035 0.137059 0.0515544
35 1 0.852202 0.137833 0.000888597
36 1 0.803264 0.136607 0.0511411
37 1 1.00017 0.187788 0.00344009
38 1 0.0497161 0.239338 0.00167569
39 1 0.0490073 0.191486 0.051577
40 1 1.00016 0.240183 0.0531102
41 1 0.0979401 0.185165 0.00243572
42 1 0.146859 0.238796 0.00209802
43 1 0.147623 0.18679 0.0522307
44 1 0.09846 0.238846 0.0537132
45 1 0.196034 0.185307 0.00189383
46 1 0.246179 0.240065 0.0014349
47 1 0.246892 0.187881 0.0521368
48 1 0.196038 0.239082 0.0526082
49 1 0.296021 0.18659 0.00131064
50 1 0.347001 0.240183 0.00137828
51 1 0.346404 0.187103 0.0515089
52 1 0.296482 0.240553 0.0524046
53 1 0.398051 0.187749 0.000828611
54 1 0.449153 0.241095 0.000866774
55 1 0.449259 0.188391 0.0510333
56 1 0.397837 0.240341 0.0514067
57 1 0.500258 0.188324 0.000928933
58 1 0.550933 0.241725 0.000741553
59 1 0.551354 0.188404 0.0511575
60 1 0.500377 0.241242 0.0510841
61 1 0.601762 0.188954 0.000662892
62 1 0.652619 0.242094 0.00103877
63 1 0.652541 0.189107 0.0513931
64 1 0.601852 0.241624 0.0514666
65 1 0.703689 0.189069 0.00110909
66 1 0.753881 0.24195 0.00196712
67 1 0.754334 0.187695 0.0525157
68 1 0.703491 0.241671 0.0519868
69 1 0.804008 0.188363 0.00218926
70 1 0.854399 0.240054 0.00232853
71 1 0.855201 0.186059 0.0531677
72 1 0.804862 0.240341 0.0526089
73 1 0.903801 0.185255 0.00260737
74 1 0.951513 0.239742 0.00173461
75 1 0.951048 0.19068 0.053259
76 1 0.903115 0.24119 0.0528582
77 1 1.00058 0.293456 0.00147955
78 1 0.0492922 0.347831 0.00135801
79 1 0.0492226 0.29328 0.0524167
80 1 1.00071 0.348124 0.0530212
81 1 0.0984557 0.29311 0.00152716
82 1 0.147334 0.347498 0.00128285
83 1 0.147251 0.293032 0.0524782
84 1 0.0979364 0.347917 0.0518726
85 1 0.196617 0.293438 0.00158296
86 1 0.246743 0.346623 0.00195099
87 1 0.245676 0.293137 0.0527706
88 1 0.19594 0.346886 0.052944
89 1 0.296745 0.293347 0.00172714
90 1 0.347409 0.346525 0.00171047
91 1 0.347304 0.293318 0.0521302
92 1 0.296547 0.346287 0.0524753
93 1 0.397985 0.293548 0.00130532
94 1 0.448885 0.347425 0.00123126
95 1 0.449152 0.293848 0.051229
96 1 0.398152 0.346809 0.0515626
97 1 0.499939 0.294542 0.000880665
98 1 0.550596 0.347637 0.000959341
99 1 0.550939 0.294297 0.0515074
100 1 0.500105 0.347357 0.0512846
101 1 0.601622 0.294846 0.00105526
102 1 0.652043 0.348063 0.00125455
103 1 0.652659 0.294662 0.0518509
104 1 0.601536 0.347503 0.0515867
105 1 0.703038 0.295303 0.00147764
106 1 0.753372 0.348793 0.00170716
107 1 0.754022 0.295187 0.0518748
108 1 0.70305 0.348391 0.0518747
109 1 0.804256 0.295094 0.00216021
110 1 0.853499 0.349368 0.00221142
111 1 0.853862 0.295585 0.0527667
112 1 0.803979 0.349496 0.0525578
113 1 0.902711 0.29487 0.00190595
114 1 0.952045 0.348347 0.0018645
115 1 0.952124 0.293986 0.0530286
116 1 0.903578 0.349118 0.0530997
117 1 1.00064 0.402427 0.0013608
118 1 0.0489132 0.457063 0.00175484
119 1 0.0487251 0.402442 0.0530972
120 1 1.0009 0.456398 0.0529038
121 1 0.0976155 0.40228 0.00139242
122 1 0.147288 0.454884 0.00165654
123 1 0.146694 0.401246 0.0522521
124 1 0.0968313 0.456172 0.0533158
125 1 0.197024 0.400679 0.00148307
126 1 0.247121 0.45365 0.00177093
127 1 0.24621 0.399561 0.0525623
128 1 0.196775 0.453571 0.0522877
129 1 0.297196 0.399854 0.00185904
130 1 0.347099 0.453896 0.00196884
131 1 0.347232 0.39997 0.052016
132 1 0.296288 0.453469 0.0522909
133 1 0.398028 0.400467 0.00159164
134 1 0.448776 0.453981 0.00134483
135 1 0.449023 0.400552 0.0515706
136 1 0.397881 0.453531 0.0519096
137 1 0.499751 0.400918 0.0012238
138 1 0.550313 0.454259 0.00126835
139 1 0.550804 0.400844 0.0514769
140 1 0.499734 0.45399 0.0516752
141 1 0.601163 0.401093 0.0010363
142 1 0.651634 0.454591 0.00139104
143 1 0.65197 0.401188 0.0517715
144 1 0.601385 0.45448 0.0515991
145 1 0.70245 0.401647 0.00144707
146 1 0.752908 0.455378 0.00168226
147 1 0.753153 0.402241 0.0521457
148 1 0.702218 0.454828 0.051997
149 1 0.8035 0.402619 0.0019746
150 1 0.853853 0.455934 0.00262788
151 1 0.854394 0.403151 0.0533377
152 1 0.803653 0.455864 0.0527063
153 1 0.903388 0.4029 0.00252262
154 1 0.952254 0.457275 0.00236363
155 1 0.952819 0.403021 0.0537592
156 1 0.904774 0.457349 0.0543007
157 1 1.00023 0.511726 0.0029327
158 1 0.0489501 0.562668 0.00261364
159 1 0.049138 0.510901 0.0534101
160 1 0.0983357 0.509864 0.00206131
161 1 0.149341 0.5623 0.00257332
162 1 0.147292 0.507848 0.0525133
163 1 0.100006 0.560308 0.0518294
164 1 0.197248 0.508086 0.00217836
165 1 0.24486 0.562702 0.00264731
166 1 0.245647 0.507964 0.0524283
167 1 0.1957 0.562115 0.0533933
168 1 0.296182 0.507861 0.00220358
169 1 0.347031 0.56013 0.00232031
170 1 0.34666 0.506836 0.0524812
171 1 0.295294 0.560548 0.0527892
172 1 0.397664 0.507075 0.00197055
173 1 0.448651 0.560054 0.0014118
174 1 0.448483 0.507137 0.0519791
175 1 0.397459 0.560372 0.0524585
176 1 0.499348 0.50725 0.00146092
177 1 0.550167 0.560552 0.00115038
178 1 0.550387 0.507649 0.0518116
179 1 0.49941 0.560491 0.0517052
180 1 0.600872 0.507667 0.00134122
181 1 0.651411 0.560896 0.00148998
182 1 0.65205 0.508217 0.0519799
183 1 0.601003 0.561116 0.0516904
184 1 0.702138 0.50831 0.00157346
185 1 0.752867 0.562661 0.00221212
186 1 0.752618 0.507998 0.0522411
187 1 0.70305 0.562084 0.0520177
188 1 0.80347 0.508832 0.00200229
189 1 0.853796 0.563201 0.0020913
190 1 0.854019 0.509673 0.0531708
191 1 0.802429 0.56081 0.0521617
192 1 0.903388 0.509949 0.00281651
193 1 0.950659 0.562905 0.0013991
194 1 0.953027 0.511582 0.0541577
195 1 0.902256 0.56111 0.0525673
196 1 0.0994328 0.608408 -0.00019854
197 1 0.249854 0.662398 0.00244698
198 1 0.245898 0.613074 0.0521528
199 1 0.296592 0.612716 0.00252928
200 1 0.346608 0.663951 0.00207681
201 1 0.345822 0.613576 0.0536127
202 1 0.295428 0.664972 0.0536172
203 1 0.397732 0.61258 0.00172166
204 1 0.448267 0.665955 0.0011315
205 1 0.448395 0.61297 0.0518127
206 1 0.396789 0.665271 0.0523296
207 1 0.499675 0.61342 0.000910596
208 1 0.551146 0.667399 0.000754524
209 1 0.550607 0.613628 0.0514234
210 1 0.499902 0.665678 0.0508428
211 1 0.601437 0.614431 0.000874344
212 1 0.653196 0.668361 0.00121468
213 1 0.652102 0.614435 0.0513576
214 1 0.601682 0.666901 0.0511396
215 1 0.702097 0.614294 0.00165657
216 1 0.751627 0.663187 7.09438e-05
217 1 0.75393 0.616396 0.0525475
218 1 0.70187 0.666249 0.0504962
219 1 0.803605 0.615529 0.00287842
220 1 0.850945 0.608817 0.053136
221 1 0.298095 0.711853 0.00262867
222 1 0.346446 0.714864 0.0516772
223 1 0.39567 0.717509 0.0016405
224 1 0.446189 0.771325 0.00196503
225 1 0.448025 0.716994 0.0514565
226 1 0.397224 0.763974 0.0526859
227 1 0.499534 0.720183 0.00081077
228 1 0.551876 0.773102 0.00305243
229 1 0.551511 0.718265 0.0517501
230 1 0.499377 0.767992 0.0538008
231 1 0.60368 0.722269 0.00164304
232 1 0.649786 0.716964 0.052698
233 1 0.599527 0.768965 0.0553894
234 1 0.443972 0.862807 0.00826847
235 1 0.445319 0.813442 0.0566985
236 1 0.500878 0.822015 0.00808348
237 1 0.566125 0.858264 0.00679763
238 1 0.54841 0.820875 0.0607325
239 1 0.489401 0.864592 0.0647495
240 1 0.6107 0.808436 0.000769161
241 1 0.446224 0.933864 0.00757735
242 1 0.505948 0.896344 0.00632758
243 1 0.565048 0.931337 0.00679329
244 1 0.549798 0.895435 0.0628166
245 1 0.494167 0.934619 0.0616861
246 1 0.350199 0.0378865 0.103583
247 1 0.448126 0.0320278 0.105354
248 1 0.398944 0.0369385 0.152614
249 1 0.500011 0.985187 0.105509
250 1 0.55112 0.0320501 0.104369
251 1 0.500183 0.0331933 0.154576
252 1 0.601385 0.987326 0.102443
253 1 0.651314 0.034935 0.10179
254 1 0.602454 0.0343769 0.152311
255 1 0.247451 0.135954 0.101881
256 1 0.299092 0.0858094 0.10251
257 1 0.346953 0.135391 0.102193
258 1 0.347459 0.0850514 0.153423
259 1 0.296247 0.134742 0.152935
260 1 0.39887 0.085444 0.101899
261 1 0.449876 0.136689 0.101365
262 1 0.449811 0.085868 0.152401
263 1 0.3977 0.135898 0.153237
264 1 0.500077 0.0829389 0.102143
265 1 0.551486 0.136071 0.101522
266 1 0.551524 0.0850879 0.152127
267 1 0.500832 0.136366 0.153064
268 1 0.602486 0.0837189 0.101719
269 1 0.653473 0.135556 0.102305
270 1 0.653603 0.0838753 0.152006
271 1 0.603637 0.13535 0.152857
272 1 0.702945 0.0854128 0.101128
273 1 0.753967 0.135881 0.102647
274 1 0.704594 0.134376 0.153336
275 1 0.0484837 0.241456 0.102684
276 1 0.146827 0.238388 0.103346
277 1 0.0973597 0.245054 0.148213
278 1 0.196567 0.18691 0.102879
279 1 0.245039 0.239422 0.103782
280 1 0.245633 0.186396 0.152538
281 1 0.194753 0.239274 0.153946
282 1 0.296172 0.186728 0.102964
283 1 0.347156 0.240131 0.102379
284 1 0.34679 0.186769 0.153426
285 1 0.296129 0.239693 0.152573
286 1 0.397975 0.187997 0.101897
287 1 0.449335 0.240876 0.101558
288 1 0.449368 0.188359 0.152323
289 1 0.398249 0.240397 0.152313
290 1 0.500749 0.188555 0.101634
291 1 0.55133 0.241264 0.101819
292 1 0.551843 0.188215 0.152611
293 1 0.500296 0.241175 0.152107
294 1 0.60236 0.18848 0.102108
295 1 0.653074 0.241146 0.102387
296 1 0.653936 0.187205 0.153182
297 1 0.602532 0.24083 0.152488
298 1 0.703849 0.187857 0.10291
299 1 0.754653 0.241009 0.10189
300 1 0.755399 0.187835 0.151735
301 1 0.704437 0.241577 0.152214
302 1 0.805809 0.186366 0.102747
303 1 0.853702 0.242076 0.102788
304 1 0.853594 0.192646 0.152298
305 1 0.804092 0.241795 0.152481
306 1 0.902518 0.192438 0.103119
307 1 0.953087 0.241001 0.104621
308 1 0.903631 0.24261 0.153513
309 1 0.000650019 0.294115 0.104212
310 1 0.04903 0.347968 0.103766
311 1 0.049552 0.2949 0.151427
312 1 0.00104737 0.348107 0.153645
313 1 0.0980871 0.294683 0.102278
314 1 0.146004 0.347056 0.104447
315 1 0.145321 0.292914 0.155075
316 1 0.0964888 0.346374 0.155354
317 1 0.194876 0.292258 0.104129
318 1 0.245438 0.346174 0.103325
319 1 0.244534 0.292413 0.153907
320 1 0.19495 0.34615 0.154122
321 1 0.295932 0.293087 0.102904
322 1 0.347175 0.346431 0.10206
323 1 0.347527 0.293475 0.152006
324 1 0.296071 0.346236 0.152634
325 1 0.398415 0.293352 0.101711
326 1 0.448994 0.347121 0.101448
327 1 0.449082 0.293715 0.151947
328 1 0.398122 0.346759 0.15167
329 1 0.500082 0.294118 0.101632
330 1 0.550981 0.347269 0.101886
331 1 0.551233 0.293973 0.152096
332 1 0.499803 0.346895 0.151603
333 1 0.602075 0.294227 0.102126
334 1 0.652632 0.34792 0.101959
335 1 0.653352 0.294664 0.152231
336 1 0.602295 0.347699 0.152111
337 1 0.703721 0.294807 0.102033
338 1 0.75375 0.349003 0.102537
339 1 0.754058 0.295318 0.152637
340 1 0.703426 0.348513 0.15247
341 1 0.803753 0.295673 0.102405
342 1 0.85464 0.349168 0.103627
343 1 0.854077 0.29548 0.153124
344 1 0.804496 0.34923 0.153558
345 1 0.90415 0.294548 0.104091
346 1 0.952755 0.348692 0.104413
347 1 0.952432 0.295421 0.153738
348 1 0.905144 0.348903 0.155243
349 1 0.00101494 0.402731 0.105518
350 1 0.0486712 0.455381 0.10556
351 1 0.0505151 0.399979 0.152853
352 1 0.0976288 0.401129 0.103642
353 1 0.146089 0.454636 0.10362
354 1 0.144042 0.399947 0.155942
355 1 0.0981897 0.453728 0.153204
356 1 0.195069 0.40012 0.103799
357 1 0.245955 0.452946 0.102851
358 1 0.24495 0.399592 0.153837
359 1 0.195229 0.453183 0.153704
360 1 0.296194 0.399567 0.102636
361 1 0.346431 0.453419 0.102241
362 1 0.346951 0.399648 0.152158
363 1 0.295657 0.453018 0.152842
364 1 0.397698 0.400166 0.101735
365 1 0.448724 0.45356 0.101751
366 1 0.448698 0.400251 0.151448
367 1 0.397219 0.453415 0.15166
368 1 0.500105 0.400411 0.101641
369 1 0.55089 0.454356 0.101647
370 1 0.551078 0.400727 0.151659
371 1 0.499813 0.453769 0.151417
372 1 0.601654 0.400853 0.101837
373 1 0.652161 0.454738 0.102217
374 1 0.652727 0.401565 0.152296
375 1 0.601833 0.454711 0.151913
376 1 0.703049 0.40181 0.102449
377 1 0.753244 0.455661 0.102854
378 1 0.753981 0.402646 0.153084
379 1 0.703387 0.455599 0.152967
380 1 0.803889 0.402846 0.102893
381 1 0.854642 0.457096 0.103822
382 1 0.854134 0.403013 0.153207
383 1 0.804542 0.456942 0.153572
384 1 0.904417 0.403317 0.104717
385 1 0.953649 0.45654 0.105969
386 1 0.952653 0.401751 0.154572
387 1 0.903721 0.456015 0.153928
388 1 0.00157463 0.505191 0.100893
389 1 0.0971472 0.508003 0.103669
390 1 0.14778 0.556676 0.102683
391 1 0.146388 0.506482 0.15352
392 1 0.196192 0.506712 0.103075
393 1 0.243871 0.561313 0.102889
394 1 0.244812 0.506902 0.153599
395 1 0.195916 0.557854 0.152941
396 1 0.295077 0.507112 0.102671
397 1 0.345709 0.559905 0.102265
398 1 0.345772 0.506981 0.152324
399 1 0.294493 0.560181 0.153259
400 1 0.397336 0.506647 0.102088
401 1 0.448206 0.560399 0.102324
402 1 0.448242 0.50663 0.151758
403 1 0.396923 0.559332 0.152231
404 1 0.499485 0.507388 0.101912
405 1 0.550325 0.560989 0.102205
406 1 0.550698 0.50753 0.151837
407 1 0.499063 0.560564 0.152301
408 1 0.601639 0.508185 0.101846
409 1 0.652624 0.562052 0.101989
410 1 0.65248 0.508761 0.152531
411 1 0.60155 0.561163 0.15229
412 1 0.702557 0.508558 0.10273
413 1 0.752918 0.561461 0.102659
414 1 0.754159 0.509627 0.153704
415 1 0.70343 0.562757 0.152928
416 1 0.803944 0.509352 0.103487
417 1 0.85354 0.560803 0.103219
418 1 0.8541 0.509089 0.153292
419 1 0.803646 0.561621 0.152575
420 1 0.904124 0.509587 0.103873
421 1 0.246054 0.609462 0.153572
422 1 0.293812 0.613219 0.102801
423 1 0.344657 0.666076 0.104044
424 1 0.345791 0.611282 0.152389
425 1 0.296744 0.658672 0.15381
426 1 0.396536 0.613637 0.102936
427 1 0.44751 0.665165 0.102322
428 1 0.44735 0.613721 0.152816
429 1 0.395061 0.665539 0.15375
430 1 0.499385 0.613335 0.101931
431 1 0.551327 0.666106 0.102427
432 1 0.550122 0.613728 0.153227
433 1 0.499121 0.665025 0.152746
434 1 0.601401 0.61426 0.102346
435 1 0.653 0.666015 0.101121
436 1 0.652571 0.61445 0.152395
437 1 0.600657 0.665687 0.154129
438 1 0.704248 0.615593 0.101545
439 1 0.752671 0.61317 0.151306
440 1 0.701293 0.663454 0.15224
441 1 0.802364 0.610251 0.101595
442 1 0.396127 0.715209 0.102565
443 1 0.446471 0.764201 0.10472
444 1 0.4468 0.71441 0.153496
445 1 0.499188 0.715757 0.102508
446 1 0.549949 0.76621 0.105179
447 1 0.550528 0.716075 0.154174
448 1 0.498051 0.761792 0.153069
449 1 0.602205 0.717646 0.103929
450 1 0.651135 0.710213 0.151597
451 1 0.496967 0.811974 0.106757
452 1 0.449003 0.0378939 0.200395
453 1 0.552096 0.0370918 0.199877
454 1 0.34645 0.134408 0.204466
455 1 0.298513 0.140884 0.253283
456 1 0.398064 0.0846709 0.203391
457 1 0.448909 0.135572 0.203488
458 1 0.450028 0.0848628 0.25206
459 1 0.397517 0.133885 0.254178
460 1 0.500893 0.083488 0.204494
461 1 0.552835 0.135345 0.203261
462 1 0.551678 0.0844004 0.251756
463 1 0.500967 0.136557 0.252182
464 1 0.6032 0.0841324 0.202423
465 1 0.655279 0.133817 0.203932
466 1 0.604362 0.133216 0.253756
467 1 0.752918 0.141985 0.202509
468 1 0.70488 0.139752 0.251926
469 1 0.24543 0.238838 0.201977
470 1 0.248463 0.190008 0.253018
471 1 0.201022 0.241584 0.252704
472 1 0.295578 0.186729 0.202133
473 1 0.347289 0.240386 0.202305
474 1 0.347497 0.188575 0.252381
475 1 0.296284 0.239852 0.252909
476 1 0.398094 0.187054 0.203409
477 1 0.449162 0.240687 0.202774
478 1 0.448826 0.186932 0.253665
479 1 0.398265 0.240861 0.252569
480 1 0.500419 0.188668 0.202696
481 1 0.551666 0.240694 0.202515
482 1 0.552754 0.186885 0.253028
483 1 0.500427 0.240247 0.252658
484 1 0.603744 0.186894 0.203282
485 1 0.653474 0.241724 0.202339
486 1 0.653782 0.187938 0.25252
487 1 0.602562 0.241182 0.252159
488 1 0.704216 0.189442 0.202335
489 1 0.755309 0.241208 0.203159
490 1 0.75634 0.189366 0.252967
491 1 0.705049 0.24135 0.252644
492 1 0.804257 0.190447 0.201659
493 1 0.854237 0.242451 0.202504
494 1 0.806263 0.242168 0.252535
495 1 0.147338 0.345826 0.202544
496 1 0.194003 0.291864 0.204796
497 1 0.244392 0.345935 0.203313
498 1 0.247003 0.293016 0.251741
499 1 0.194744 0.34515 0.253333
500 1 0.296692 0.293049 0.202082
501 1 0.347204 0.346453 0.202424
502 1 0.346807 0.293307 0.25287
503 1 0.295782 0.346469 0.252926
504 1 0.39819 0.293831 0.202259
505 1 0.448762 0.347084 0.201848
506 1 0.449082 0.293988 0.252335
507 1 0.397879 0.347003 0.252252
508 1 0.500011 0.293849 0.202193
509 1 0.550988 0.34731 0.201468
510 1 0.551106 0.294301 0.251749
511 1 0.499718 0.347474 0.251505
512 1 0.602432 0.294448 0.202053
513 1 0.653406 0.348237 0.202491
514 1 0.653404 0.295004 0.252186
515 1 0.602003 0.347821 0.25159
516 1 0.704398 0.294834 0.203032
517 1 0.754052 0.349013 0.202811
518 1 0.756264 0.294896 0.253205
519 1 0.704747 0.349088 0.252717
520 1 0.805031 0.294956 0.202886
521 1 0.855851 0.349184 0.204617
522 1 0.854186 0.295953 0.251263
523 1 0.80461 0.349297 0.251754
524 1 0.901955 0.295343 0.201322
525 1 0.147483 0.45369 0.201925
526 1 0.193271 0.399566 0.20558
527 1 0.243992 0.453048 0.203605
528 1 0.244847 0.399049 0.252471
529 1 0.193967 0.453249 0.253418
530 1 0.29598 0.399276 0.202418
531 1 0.346462 0.453257 0.201873
532 1 0.346523 0.400005 0.252049
533 1 0.295508 0.453339 0.251797
534 1 0.397662 0.400062 0.201816
535 1 0.448343 0.453429 0.201275
536 1 0.448475 0.400704 0.251476
537 1 0.396947 0.453449 0.251696
538 1 0.499725 0.400255 0.201204
539 1 0.550935 0.454003 0.201342
540 1 0.550799 0.400813 0.251185
541 1 0.499588 0.453682 0.25098
542 1 0.602133 0.401193 0.201945
543 1 0.652778 0.455353 0.202259
544 1 0.653047 0.401914 0.252014
545 1 0.60188 0.454981 0.251608
546 1 0.703979 0.402556 0.202801
547 1 0.755402 0.456818 0.203731
548 1 0.755965 0.403655 0.253123
549 1 0.70416 0.456518 0.251864
550 1 0.805179 0.403508 0.203246
551 1 0.854444 0.456314 0.202849
552 1 0.854295 0.402755 0.251436
553 1 0.806944 0.457558 0.253558
554 1 0.901684 0.402938 0.20131
555 1 0.194601 0.506413 0.203671
556 1 0.24384 0.559556 0.203377
557 1 0.244226 0.506899 0.252304
558 1 0.294773 0.506945 0.20255
559 1 0.345002 0.560471 0.203219
560 1 0.345423 0.50662 0.252073
561 1 0.293869 0.559682 0.252475
562 1 0.396713 0.506589 0.201948
563 1 0.448049 0.559576 0.20179
564 1 0.447952 0.506382 0.251304
565 1 0.396375 0.559821 0.251856
566 1 0.499404 0.506715 0.201423
567 1 0.550186 0.560421 0.202205
568 1 0.550608 0.507262 0.251307
569 1 0.49878 0.55979 0.251512
570 1 0.601906 0.508327 0.202054
571 1 0.653452 0.563075 0.203177
572 1 0.653296 0.509509 0.251906
573 1 0.602074 0.561832 0.251984
574 1 0.704002 0.509945 0.202596
575 1 0.754663 0.56324 0.202074
576 1 0.75538 0.511298 0.251436
577 1 0.705155 0.563814 0.252039
578 1 0.805214 0.509828 0.203174
579 1 0.293995 0.611845 0.204022
580 1 0.345909 0.660399 0.201923
581 1 0.344482 0.613361 0.253268
582 1 0.396478 0.611877 0.202432
583 1 0.446245 0.665568 0.20397
584 1 0.447519 0.612575 0.252069
585 1 0.396465 0.661871 0.251327
586 1 0.498659 0.614207 0.203029
587 1 0.550097 0.666902 0.204614
588 1 0.549799 0.613708 0.252037
589 1 0.498051 0.666 0.25307
590 1 0.601514 0.61365 0.202986
591 1 0.651701 0.664484 0.202355
592 1 0.653802 0.616371 0.2533
593 1 0.600507 0.663955 0.251383
594 1 0.703828 0.615132 0.202652
595 1 0.497785 0.713162 0.201611
596 1 0.347714 0.138567 0.301309
597 1 0.448703 0.133429 0.303565
598 1 0.398726 0.137076 0.351069
599 1 0.500912 0.0879101 0.298817
600 1 0.553367 0.133121 0.303157
601 1 0.501119 0.133104 0.352006
602 1 0.655252 0.137276 0.302368
603 1 0.604328 0.135646 0.351512
604 1 0.703874 0.141602 0.351542
605 1 0.245937 0.23927 0.303748
606 1 0.296362 0.187665 0.303572
607 1 0.346731 0.239454 0.303204
608 1 0.346464 0.185374 0.352958
609 1 0.295967 0.239646 0.352144
610 1 0.398042 0.187378 0.302679
611 1 0.449373 0.240328 0.302286
612 1 0.449801 0.186344 0.351768
613 1 0.397862 0.239425 0.351974
614 1 0.500944 0.185841 0.302818
615 1 0.55146 0.240498 0.301825
616 1 0.551989 0.185982 0.351282
617 1 0.500518 0.240079 0.351247
618 1 0.603097 0.1869 0.301959
619 1 0.65384 0.241431 0.301466
620 1 0.653717 0.18884 0.350912
621 1 0.602324 0.241026 0.350878
622 1 0.706103 0.188584 0.301658
623 1 0.757007 0.241767 0.301754
624 1 0.754904 0.191699 0.351089
625 1 0.705472 0.242295 0.350316
626 1 0.803225 0.245107 0.351447
627 1 0.200263 0.29217 0.299602
628 1 0.243693 0.346127 0.303284
629 1 0.244148 0.292223 0.352501
630 1 0.29476 0.292726 0.303079
631 1 0.346736 0.346658 0.302207
632 1 0.346802 0.293282 0.351815
633 1 0.295031 0.345874 0.351717
634 1 0.397939 0.29344 0.30228
635 1 0.448722 0.347533 0.301667
636 1 0.449155 0.293735 0.351305
637 1 0.3978 0.347349 0.351535
638 1 0.500209 0.294148 0.301625
639 1 0.550763 0.347952 0.301245
640 1 0.551015 0.294385 0.351044
641 1 0.499722 0.347873 0.351023
642 1 0.601932 0.294736 0.301469
643 1 0.653034 0.348613 0.301328
644 1 0.653304 0.295151 0.350475
645 1 0.601842 0.348541 0.350628
646 1 0.705119 0.295535 0.301567
647 1 0.757217 0.34963 0.302237
648 1 0.756897 0.296666 0.350765
649 1 0.704772 0.349265 0.350392
650 1 0.807968 0.29524 0.302617
651 1 0.852645 0.34948 0.297377
652 1 0.809081 0.350006 0.350208
653 1 0.1965 0.400236 0.300513
654 1 0.245689 0.452577 0.301295
655 1 0.244049 0.399285 0.350973
656 1 0.197517 0.451306 0.349319
657 1 0.295586 0.399556 0.302185
658 1 0.345717 0.453546 0.302071
659 1 0.346062 0.400494 0.351601
660 1 0.293752 0.453719 0.352455
661 1 0.397316 0.400596 0.301732
662 1 0.448209 0.453966 0.301221
663 1 0.448484 0.401112 0.351232
664 1 0.397077 0.454208 0.35121
665 1 0.499474 0.401004 0.301088
666 1 0.550417 0.45431 0.301017
667 1 0.550397 0.401616 0.350743
668 1 0.499106 0.454595 0.350886
669 1 0.601735 0.401695 0.301081
670 1 0.653263 0.455907 0.301177
671 1 0.653194 0.402715 0.350321
672 1 0.601608 0.455358 0.350422
673 1 0.704544 0.402832 0.301641
674 1 0.754964 0.457181 0.301209
675 1 0.756592 0.403625 0.350343
676 1 0.705365 0.457233 0.350849
677 1 0.807961 0.404341 0.302548
678 1 0.803757 0.457488 0.349148
679 1 0.198935 0.503099 0.30194
680 1 0.246113 0.556551 0.303099
681 1 0.243131 0.506711 0.352917
682 1 0.294529 0.5069 0.302896
683 1 0.345737 0.55946 0.301965
684 1 0.345459 0.507609 0.351572
685 1 0.294388 0.56123 0.352315
686 1 0.396807 0.506901 0.301605
687 1 0.447342 0.559767 0.301348
688 1 0.447686 0.507426 0.35128
689 1 0.396158 0.561585 0.351886
690 1 0.499311 0.50706 0.300894
691 1 0.550378 0.56088 0.30089
692 1 0.550407 0.507878 0.350708
693 1 0.498952 0.559913 0.350796
694 1 0.601554 0.508402 0.301258
695 1 0.652818 0.562284 0.301359
696 1 0.652929 0.509325 0.350551
697 1 0.601626 0.562837 0.350325
698 1 0.704943 0.510088 0.301525
699 1 0.75297 0.56106 0.302249
700 1 0.756346 0.511638 0.352345
701 1 0.703501 0.562866 0.35082
702 1 0.800661 0.508702 0.301203
703 1 0.29645 0.607319 0.301843
704 1 0.346155 0.612753 0.350381
705 1 0.395474 0.61303 0.301131
706 1 0.44703 0.663624 0.301008
707 1 0.448144 0.612478 0.35062
708 1 0.399391 0.660413 0.350242
709 1 0.498588 0.61332 0.301002
710 1 0.549402 0.6648 0.300888
711 1 0.549123 0.61367 0.350408
712 1 0.498346 0.664731 0.349767
713 1 0.60196 0.615261 0.300831
714 1 0.651945 0.616213 0.35026
715 1 0.597272 0.662624 0.350597
716 1 0.702005 0.610983 0.302347
717 1 0.449744 0.135366 0.400377
718 1 0.401073 0.138093 0.449462
719 1 0.552818 0.134892 0.400458
720 1 0.500707 0.134649 0.4495
721 1 0.654655 0.137585 0.400217
722 1 0.603999 0.13547 0.449352
723 1 0.703665 0.141227 0.448431
724 1 0.24885 0.241245 0.400842
725 1 0.298065 0.190958 0.401478
726 1 0.347274 0.239726 0.401368
727 1 0.346721 0.185611 0.450145
728 1 0.295426 0.239578 0.450037
729 1 0.3974 0.185844 0.400752
730 1 0.449416 0.239509 0.400665
731 1 0.450221 0.186561 0.449712
732 1 0.398115 0.238753 0.449929
733 1 0.501197 0.185708 0.400528
734 1 0.551487 0.240099 0.400284
735 1 0.552054 0.185759 0.449674
736 1 0.50098 0.239924 0.449783
737 1 0.602812 0.186974 0.400289
738 1 0.653926 0.241695 0.400028
739 1 0.653652 0.18874 0.44948
740 1 0.602428 0.241042 0.449392
741 1 0.705781 0.189759 0.399986
742 1 0.756399 0.242421 0.399571
743 1 0.754868 0.1916 0.448604
744 1 0.705314 0.242021 0.449565
745 1 0.804461 0.244554 0.447601
746 1 0.242295 0.345951 0.399068
747 1 0.242433 0.293266 0.447528
748 1 0.196498 0.348473 0.450182
749 1 0.295432 0.293182 0.400886
750 1 0.346522 0.34706 0.400764
751 1 0.346911 0.293062 0.449843
752 1 0.294051 0.346562 0.448549
753 1 0.398397 0.293448 0.400841
754 1 0.448988 0.347502 0.400629
755 1 0.449398 0.293356 0.449946
756 1 0.397914 0.347072 0.449745
757 1 0.500107 0.293875 0.400478
758 1 0.55073 0.348178 0.400155
759 1 0.551325 0.294519 0.449388
760 1 0.499937 0.348052 0.449711
761 1 0.602224 0.294663 0.399939
762 1 0.653389 0.349058 0.399205
763 1 0.65372 0.295502 0.448766
764 1 0.602372 0.348668 0.448702
765 1 0.70496 0.295454 0.399248
766 1 0.757467 0.350261 0.398556
767 1 0.755444 0.295936 0.447753
768 1 0.704676 0.349561 0.447796
769 1 0.807945 0.296843 0.399713
770 1 0.850561 0.352549 0.402724
771 1 0.804806 0.350026 0.449373
772 1 0.198073 0.400166 0.400109
773 1 0.241999 0.454647 0.40168
774 1 0.244041 0.400823 0.449126
775 1 0.293925 0.400215 0.400363
776 1 0.345952 0.454233 0.400823
777 1 0.346045 0.40069 0.449525
778 1 0.29452 0.454757 0.449288
779 1 0.397448 0.401093 0.400717
780 1 0.447927 0.454729 0.400898
781 1 0.44834 0.401225 0.450072
782 1 0.396653 0.454943 0.450331
783 1 0.499507 0.40167 0.40062
784 1 0.550498 0.455256 0.40031
785 1 0.551025 0.401887 0.449602
786 1 0.499499 0.45505 0.450128
787 1 0.601819 0.402224 0.399658
788 1 0.652976 0.456054 0.399594
789 1 0.653278 0.402669 0.448516
790 1 0.601857 0.455809 0.449369
791 1 0.705043 0.403388 0.399063
792 1 0.756752 0.458212 0.399503
793 1 0.756057 0.404123 0.447557
794 1 0.704598 0.457104 0.448361
795 1 0.807608 0.405587 0.39831
796 1 0.8523 0.402872 0.451485
797 1 0.805933 0.457134 0.44872
798 1 0.247802 0.556433 0.400562
799 1 0.242939 0.508279 0.448866
800 1 0.295045 0.507387 0.401136
801 1 0.344405 0.562408 0.40037
802 1 0.345189 0.509643 0.45021
803 1 0.29402 0.561947 0.44972
804 1 0.3962 0.508224 0.400881
805 1 0.447107 0.561557 0.400995
806 1 0.44767 0.508084 0.450319
807 1 0.396285 0.561657 0.450172
808 1 0.499071 0.507937 0.400689
809 1 0.550568 0.561447 0.400236
810 1 0.550487 0.508748 0.449893
811 1 0.498316 0.561301 0.45006
812 1 0.601583 0.5091 0.399951
813 1 0.651886 0.563046 0.400075
814 1 0.652639 0.509887 0.44931
815 1 0.601643 0.563414 0.449873
816 1 0.703843 0.510178 0.400172
817 1 0.74979 0.562708 0.400318
818 1 0.756162 0.511159 0.448014
819 1 0.703434 0.563573 0.449599
820 1 0.346358 0.610316 0.449704
821 1 0.395674 0.615221 0.401567
822 1 0.44914 0.663224 0.398612
823 1 0.446626 0.61573 0.449833
824 1 0.498637 0.613676 0.400255
825 1 0.548265 0.664807 0.399898
826 1 0.549032 0.613997 0.449856
827 1 0.49853 0.664687 0.449844
828 1 0.601626 0.615659 0.400157
829 1 0.651885 0.616791 0.449641
830 1 0.596702 0.66325 0.449442
831 1 0.699799 0.611888 0.399865
832 1 0.44934 0.135094 0.498466
833 1 0.398793 0.136988 0.548701
834 1 0.552263 0.132999 0.498295
835 1 0.552127 0.0882021 0.552247
836 1 0.499901 0.1328 0.547123
837 1 0.655199 0.136587 0.497566
838 1 0.604506 0.133141 0.546556
839 1 0.70451 0.138654 0.548058
840 1 0.243544 0.240898 0.496583
841 1 0.246248 0.193494 0.546856
842 1 0.195435 0.242444 0.547485
843 1 0.295497 0.190239 0.498847
844 1 0.346891 0.239156 0.498433
845 1 0.345606 0.184752 0.546361
846 1 0.295645 0.240698 0.547084
847 1 0.397436 0.185611 0.498835
848 1 0.44951 0.23955 0.499074
849 1 0.449435 0.186291 0.547608
850 1 0.397615 0.239178 0.54762
851 1 0.501094 0.185584 0.498745
852 1 0.551775 0.240387 0.49874
853 1 0.552019 0.185687 0.547259
854 1 0.500954 0.240486 0.547858
855 1 0.602798 0.186408 0.498483
856 1 0.653739 0.241551 0.498386
857 1 0.653999 0.18762 0.546979
858 1 0.60264 0.241078 0.547633
859 1 0.7061 0.188052 0.498277
860 1 0.757684 0.241273 0.497745
861 1 0.755913 0.187925 0.546746
862 1 0.705153 0.241107 0.546733
863 1 0.846978 0.246054 0.498259
864 1 0.805051 0.241056 0.548031
865 1 0.146632 0.294721 0.547748
866 1 0.0999848 0.34733 0.550271
867 1 0.195211 0.294511 0.498091
868 1 0.244551 0.346913 0.497838
869 1 0.244635 0.293062 0.546755
870 1 0.193038 0.347756 0.544598
871 1 0.294401 0.293008 0.497299
872 1 0.346318 0.346806 0.498312
873 1 0.346639 0.293449 0.547452
874 1 0.295724 0.346931 0.547341
875 1 0.398317 0.29332 0.498998
876 1 0.448909 0.347496 0.499081
877 1 0.449534 0.293841 0.548225
878 1 0.397697 0.347212 0.548198
879 1 0.500594 0.294265 0.498824
880 1 0.551501 0.348339 0.498661
881 1 0.551612 0.294801 0.548003
882 1 0.500263 0.347979 0.548174
883 1 0.602559 0.295168 0.498355
884 1 0.653519 0.348967 0.497974
885 1 0.65346 0.295156 0.547516
886 1 0.602515 0.34858 0.548214
887 1 0.704867 0.295369 0.497975
888 1 0.753821 0.349936 0.49807
889 1 0.754977 0.295061 0.547141
890 1 0.703605 0.349299 0.547818
891 1 0.804951 0.297307 0.496869
892 1 0.854952 0.349033 0.497022
893 1 0.855472 0.294915 0.545964
894 1 0.805396 0.348952 0.546733
895 1 0.901991 0.348688 0.547616
896 1 0.145828 0.400311 0.54649
897 1 0.193812 0.400881 0.496571