ITEM: TIMESTEP
1100
ITEM: NUMBER OF ATOMS
1875
ITEM: BOX BOUNDS xy xz yz pp pp pp
3.8893007076355957e-01 4.0420077496151052e+01 -7.6658418272411485e-03
1.0245462220599535e+00 3.9792082378141245e+01 1.6673408741628645e-02
3.6147907878222441e-01 4.0438520921217531e+01 1.6628600200821530e-02
ITEM: ATOMS id type xs ys zs
1 1 0.347307 0.0314975 0.00171023
2 1 0.397195 0.98181 0.00198628
3 1 0.45021 0.0281748 0.00156
4 1 0.447736 0.983215 0.0555088
5 1 0.396873 0.0309859 0.0531879
6 1 0.50416 0.975114 0.00280742
7 1 0.553188 0.028523 0.00183722
8 1 0.55367 0.977401 0.055471
9 1 0.501701 0.0294542 0.0513849
10 1 0.608555 0.982633 0.00143916
11 1 0.655845 0.0329965 0.00149794
12 1 0.603642 0.0313214 0.0520177
13 1 0.246334 0.132843 0.00161719
14 1 0.200662 0.139971 0.0531909
15 1 0.296849 0.0822101 0.000927216
16 1 0.34745 0.134802 0.000929451
17 1 0.346344 0.0830232 0.0510292
18 1 0.295582 0.134216 0.0513279
19 1 0.398776 0.0818404 0.00196225
20 1 0.44967 0.135211 0.00104638
21 1 0.449742 0.081309 0.0513039
22 1 0.398415 0.13577 0.0505155
23 1 0.501075 0.0819159 0.000970301
24 1 0.55154 0.136273 0.000918592
25 1 0.551795 0.0828664 0.0511882
26 1 0.500404 0.135764 0.0505809
27 1 0.602944 0.0829815 0.00156014
28 1 0.653407 0.135474 0.00140568
29 1 0.654659 0.0827018 0.0519041
30 1 0.602656 0.136059 0.0512713
31 1 0.705445 0.0827511 0.00210624
32 1 0.754747 0.134725 0.00110857
33 1 0.751598 0.0887789 0.0526796
34 1 0.702981 0.136559 0.0519243
35 1 0.851078 0.138298 0.000775498
36 1 0.802526 0.13697 0.0517039
37 1 0.999818 0.188042 0.00457999
38 1 0.0493687 0.239891 0.0025362
39 1 0.0494992 0.191958 0.0520331
40 1 0.99975 0.239901 0.0543701
41 1 0.0982328 0.185999 0.0029954
42 1 0.147437 0.239182 0.00239757
43 1 0.148558 0.187583 0.0523881
44 1 0.0989641 0.239298 0.0540738
45 1 0.196992 0.185546 0.00187849
46 1 0.247206 0.240409 0.00127208
47 1 0.248151 0.188599 0.051998
48 1 0.197151 0.239619 0.0523428
49 1 0.297233 0.187076 0.000896834
50 1 0.347862 0.241389 0.00106544
51 1 0.347209 0.188016 0.0511021
52 1 0.297425 0.241735 0.0518812
53 1 0.398604 0.188552 0.000748712
54 1 0.449183 0.242299 0.000818128
55 1 0.449497 0.189094 0.0508616
56 1 0.398494 0.241468 0.0512793
57 1 0.500175 0.18928 0.000852336
58 1 0.550978 0.242747 0.000813536
59 1 0.55114 0.189468 0.0509716
60 1 0.500225 0.242373 0.0511036
61 1 0.602121 0.189544 0.00120401
62 1 0.652505 0.242659 0.00114307
63 1 0.652469 0.189431 0.0515414
64 1 0.601602 0.242756 0.0513042
65 1 0.703496 0.188789 0.0014869
66 1 0.752866 0.242044 0.0020131
67 1 0.753431 0.187758 0.0527589
68 1 0.702646 0.242221 0.0521662
69 1 0.802816 0.188415 0.00198506
70 1 0.853592 0.239961 0.00232441
71 1 0.853822 0.186688 0.0529798
72 1 0.803729 0.24063 0.0523428
73 1 0.903069 0.185272 0.00326878
74 1 0.951188 0.239577 0.00257537
75 1 0.950327 0.190585 0.0540117
76 1 0.902527 0.241446 0.0530707
77 1 -7.25564e-06 0.293554 0.0023177
78 1 0.0488292 0.347784 0.00199153
79 1 0.0487263 0.293107 0.0531947
80 1 0.000542271 0.348194 0.0536137
81 1 0.098384 0.293349 0.00240454
82 1 0.147561 0.3477 0.00170425
83 1 0.148052 0.293382 0.0525278
84 1 0.0979442 0.348016 0.0521853
85 1 0.197336 0.293731 0.00123856
86 1 0.247032 0.347729 0.00150212
87 1 0.246487 0.294101 0.0522662
88 1 0.196665 0.34769 0.0524335
89 1 0.297451 0.294661 0.00140218
90 1 0.347768 0.348457 0.00125402
91 1 0.347906 0.294774 0.0516514
92 1 0.29726 0.348033 0.0516787
93 1 0.398375 0.295291 0.00120987
94 1 0.448885 0.348655 0.00107365
95 1 0.449253 0.29512 0.0514626
96 1 0.39831 0.348422 0.0516767
97 1 0.499769 0.295761 0.000869972
98 1 0.55066 0.348808 0.000751834
99 1 0.550773 0.29573 0.0513823
100 1 0.499868 0.348576 0.0513201
101 1 0.601534 0.29599 0.000753103
102 1 0.651852 0.348958 0.00113847
103 1 0.65188 0.295831 0.0516628
104 1 0.601212 0.349054 0.0516275
105 1 0.70253 0.295699 0.00154088
106 1 0.753044 0.348804 0.00155895
107 1 0.753058 0.295585 0.052005
108 1 0.702509 0.349074 0.0519612
109 1 0.803372 0.294823 0.00205811
110 1 0.853112 0.34882 0.0017526
111 1 0.853258 0.295338 0.0524811
112 1 0.803649 0.349224 0.0522737
113 1 0.902427 0.294504 0.00204464
114 1 0.951512 0.348188 0.00224925
115 1 0.951945 0.29403 0.0538325
116 1 0.903082 0.348562 0.0531372
117 1 0.000153093 0.402254 0.00200434
118 1 0.0484624 0.457132 0.00237902
119 1 0.0487382 0.402602 0.0535558
120 1 0.000305378 0.456191 0.053389
121 1 0.0975718 0.402317 0.0019684
122 1 0.146981 0.455373 0.00211128
123 1 0.146711 0.401772 0.0526088
124 1 0.0966524 0.456592 0.0538073
125 1 0.197012 0.401415 0.00174676
126 1 0.246869 0.455137 0.0017248
127 1 0.246785 0.401179 0.0521438
128 1 0.196713 0.45457 0.0523963
129 1 0.297075 0.401521 0.00126857
130 1 0.347126 0.455058 0.00105432
131 1 0.347398 0.401838 0.0516672
132 1 0.296573 0.455087 0.0518903
133 1 0.398267 0.401803 0.00110406
134 1 0.449084 0.455008 0.00098824
135 1 0.449158 0.401873 0.0513882
136 1 0.398031 0.454831 0.0513719
137 1 0.499785 0.401878 0.000923607
138 1 0.550665 0.455002 0.000806039
139 1 0.550604 0.402055 0.0513072
140 1 0.499963 0.455244 0.0513776
141 1 0.601314 0.401914 0.00088818
142 1 0.651832 0.455348 0.00135765
143 1 0.651654 0.402188 0.0517889
144 1 0.601147 0.45548 0.0514616
145 1 0.702398 0.402096 0.00151958
146 1 0.752842 0.455264 0.00160361
147 1 0.753046 0.402236 0.0521072
148 1 0.702199 0.455378 0.0519475
149 1 0.803279 0.402231 0.00171907
150 1 0.853615 0.455705 0.00208946
151 1 0.854026 0.402711 0.0527627
152 1 0.803644 0.455611 0.0524005
153 1 0.902972 0.402618 0.00214561
154 1 0.951781 0.457087 0.00253028
155 1 0.952128 0.402573 0.0538365
156 1 0.904299 0.456892 0.0541741
157 1 0.999454 0.511616 0.00340964
158 1 0.0484344 0.56243 0.00313288
159 1 0.0486244 0.510914 0.0539936
160 1 0.0980122 0.51008 0.00256761
161 1 0.149134 0.562986 0.00299119
162 1 0.147249 0.508535 0.0529317
163 1 0.0995913 0.560465 0.052245
164 1 0.197133 0.509056 0.00235724
165 1 0.244443 0.56399 0.00206275
166 1 0.245727 0.50934 0.0522586
167 1 0.195812 0.56314 0.0536249
168 1 0.296097 0.508992 0.0012946
169 1 0.347361 0.560938 0.00118696
170 1 0.347028 0.507799 0.0514317
171 1 0.295509 0.561375 0.0516646
172 1 0.398102 0.507962 0.000890292
173 1 0.449213 0.56101 0.000650082
174 1 0.448917 0.508217 0.0512591
175 1 0.398085 0.561085 0.0514021
176 1 0.500252 0.508055 0.000944408
177 1 0.550942 0.561403 0.000624564
178 1 0.550872 0.50876 0.0513723
179 1 0.49995 0.561492 0.0510353
180 1 0.601228 0.508483 0.000799975
181 1 0.651725 0.561713 0.00073814
182 1 0.652092 0.509014 0.0514268
183 1 0.60142 0.561931 0.0515528
184 1 0.702404 0.508783 0.0012738
185 1 0.752922 0.562681 0.00159267
186 1 0.752542 0.508193 0.0517798
187 1 0.703109 0.562455 0.0517658
188 1 0.803408 0.508698 0.00153611
189 1 0.853251 0.563097 0.00166516
190 1 0.853725 0.509379 0.0530129
191 1 0.802206 0.56062 0.0520178
192 1 0.902551 0.509728 0.00230756
193 1 0.949923 0.563138 0.00154079
194 1 0.951888 0.511525 0.0537172
195 1 0.901461 0.561234 0.0521827
196 1 0.0986532 0.608522 5.59476e-05
197 1 0.250656 0.663688 0.00206871
198 1 0.246552 0.614054 0.0515781
199 1 0.29675 0.613598 0.00147889
200 1 0.347217 0.664566 0.00125572
201 1 0.346727 0.613696 0.0524867
202 1 0.296628 0.665384 0.0530784
203 1 0.398423 0.613524 0.000791563
204 1 0.448495 0.667227 0.00073719
205 1 0.44883 0.614231 0.0511487
206 1 0.397319 0.666175 0.0518429
207 1 0.499883 0.614389 0.000499654
208 1 0.550906 0.667974 0.000679118
209 1 0.550587 0.614421 0.0511645
210 1 0.499809 0.666939 0.0508755
211 1 0.60156 0.614858 0.00062644
212 1 0.65337 0.668288 0.000931824
213 1 0.652318 0.615013 0.0510978
214 1 0.601649 0.667232 0.0511549
215 1 0.702417 0.614493 0.0012832
216 1 0.752064 0.66337 1.00016
217 1 0.754057 0.616262 0.0524072
218 1 0.702293 0.666618 0.0501103
219 1 0.803327 0.615262 0.00233832
220 1 0.850297 0.608843 0.0528602
221 1 0.299103 0.712583 0.00218183
222 1 0.347328 0.71556 0.0513749
223 1 0.395833 0.718639 0.00115748
224 1 0.446097 0.772604 0.00172465
225 1 0.448054 0.718501 0.0514713
226 1 0.397551 0.765268 0.0525788
227 1 0.499591 0.72125 0.000617561
228 1 0.552708 0.773355 0.00306619
229 1 0.551831 0.718866 0.0519063
230 1 0.50002 0.768497 0.0538159
231 1 0.603564 0.721932 0.00141653
232 1 0.650324 0.716898 0.0520073
233 1 0.600506 0.76896 0.0552529
234 1 0.445376 0.862862 0.00824442
235 1 0.446683 0.814169 0.0569343
236 1 0.502103 0.822051 0.00799626
237 1 0.568044 0.857141 0.00603724
238 1 0.549873 0.821193 0.0606158
239 1 0.491711 0.865101 0.0644416
240 1 0.612599 0.807069 1.0003
241 1 0.447962 0.933597 0.00790839
242 1 0.507695 0.895727 0.00564562
243 1 0.566631 0.930728 0.00553904
244 1 0.552453 0.895454 0.0618568
245 1 0.497051 0.935236 0.0605406
246 1 0.349398 0.0378638 0.102638
247 1 0.448506 0.0321237 0.104477
248 1 0.398679 0.0368092 0.151327
249 1 0.501165 0.985501 0.10478
250 1 0.551346 0.0325244 0.103492
251 1 0.500354 0.0334155 0.154026
252 1 0.601015 0.987 0.103152
253 1 0.651091 0.0345032 0.10285
254 1 0.601419 0.0343272 0.152643
255 1 0.248511 0.137335 0.102392
256 1 0.299181 0.0865645 0.102454
257 1 0.347261 0.136016 0.101697
258 1 0.347461 0.0849252 0.152668
259 1 0.297228 0.135804 0.152969
260 1 0.39856 0.0853093 0.101048
261 1 0.449785 0.136554 0.100609
262 1 0.449493 0.0856636 0.151647
263 1 0.397689 0.135682 0.152726
264 1 0.500176 0.0829554 0.101396
265 1 0.551129 0.136291 0.10094
266 1 0.551234 0.0851572 0.152115
267 1 0.500402 0.136062 0.152275
268 1 0.602442 0.0838513 0.101819
269 1 0.652987 0.135634 0.102298
270 1 0.652778 0.0837653 0.152303
271 1 0.602622 0.135396 0.152635
272 1 0.702491 0.0849417 0.101739
273 1 0.753411 0.135684 0.103101
274 1 0.703526 0.134642 0.15293
275 1 0.0492242 0.24166 0.103241
276 1 0.147685 0.239187 0.103357
277 1 0.0982909 0.245648 0.148477
278 1 0.197825 0.188454 0.102963
279 1 0.246138 0.240853 0.103437
280 1 0.246644 0.18802 0.152576
281 1 0.195507 0.240795 0.153905
282 1 0.29723 0.18804 0.102646
283 1 0.347898 0.241163 0.101822
284 1 0.347459 0.18755 0.153016
285 1 0.297015 0.241168 0.151998
286 1 0.398415 0.188411 0.101473
287 1 0.449406 0.24151 0.101686
288 1 0.449161 0.188124 0.151941
289 1 0.398335 0.240898 0.15212
290 1 0.500482 0.18896 0.101289
291 1 0.550991 0.242149 0.101591
292 1 0.551176 0.188078 0.152122
293 1 0.50021 0.241285 0.151819
294 1 0.601784 0.188894 0.101732
295 1 0.652075 0.242063 0.102119
296 1 0.652508 0.187832 0.152509
297 1 0.601318 0.241313 0.152132
298 1 0.702997 0.188077 0.10278
299 1 0.753703 0.241238 0.101827
300 1 0.754367 0.188116 0.151644
301 1 0.703166 0.241754 0.151955
302 1 0.804776 0.186727 0.102943
303 1 0.852726 0.242176 0.102691
304 1 0.852546 0.192369 0.152135
305 1 0.803336 0.24201 0.152509
306 1 0.901327 0.192335 0.102851
307 1 0.952203 0.241143 0.105119
308 1 0.902759 0.242201 0.153592
309 1 0.000605705 0.293731 0.105251
310 1 0.048853 0.348235 0.104098
311 1 0.0504789 0.29538 0.151644
312 1 0.000902451 0.348051 0.153942
313 1 0.0984491 0.295132 0.102144
314 1 0.146405 0.347964 0.104071
315 1 0.14596 0.293999 0.154255
316 1 0.0969884 0.347431 0.155031
317 1 0.195721 0.293416 0.103593
318 1 0.246256 0.3477 0.102403
319 1 0.245478 0.294181 0.153122
320 1 0.195898 0.347642 0.153405
321 1 0.296878 0.294674 0.102196
322 1 0.347821 0.34827 0.101845
323 1 0.348077 0.294857 0.15162
324 1 0.296502 0.347796 0.152258
325 1 0.398658 0.294579 0.1018
326 1 0.449086 0.348462 0.101598
327 1 0.449211 0.294432 0.151806
328 1 0.398617 0.348083 0.151833
329 1 0.500032 0.295095 0.101686
330 1 0.550524 0.348761 0.101878
331 1 0.550525 0.294842 0.152047
332 1 0.499502 0.348348 0.151758
333 1 0.601326 0.295523 0.102029
334 1 0.651755 0.348928 0.102176
335 1 0.652066 0.295075 0.152106
336 1 0.601181 0.348652 0.152186
337 1 0.702735 0.295554 0.102003
338 1 0.753407 0.349235 0.102573
339 1 0.753212 0.295061 0.152234
340 1 0.70259 0.348637 0.152083
341 1 0.803204 0.295778 0.102309
342 1 0.854325 0.348766 0.103695
343 1 0.853668 0.295214 0.153448
344 1 0.80443 0.348878 0.15356
345 1 0.903556 0.294525 0.104465
346 1 0.952639 0.34834 0.104782
347 1 0.952151 0.295099 0.154268
348 1 0.905197 0.348543 0.155681
349 1 0.000646777 0.402788 0.105529
350 1 0.0481101 0.456078 0.10589
351 1 0.0501768 0.400513 0.152861
352 1 0.0974181 0.401928 0.103914
353 1 0.14624 0.455339 0.103913
354 1 0.144601 0.401111 0.155488
355 1 0.0979582 0.454476 0.153444
356 1 0.195701 0.401199 0.103385
357 1 0.246381 0.454401 0.102652
358 1 0.245429 0.401129 0.153564
359 1 0.195765 0.454508 0.153568
360 1 0.296682 0.401141 0.102497
361 1 0.346817 0.455064 0.10213
362 1 0.347433 0.401162 0.152081
363 1 0.296277 0.454589 0.15297
364 1 0.398105 0.401997 0.101691
365 1 0.449007 0.455042 0.101572
366 1 0.448945 0.40177 0.151631
367 1 0.397884 0.454968 0.151754
368 1 0.499933 0.401955 0.10146
369 1 0.550615 0.455687 0.101706
370 1 0.550386 0.402046 0.151817
371 1 0.499821 0.455386 0.15167
372 1 0.601203 0.402429 0.101985
373 1 0.651874 0.455708 0.102142
374 1 0.652257 0.402242 0.15225
375 1 0.601288 0.455728 0.152232
376 1 0.702625 0.402305 0.102257
377 1 0.753353 0.455663 0.102604
378 1 0.753736 0.402387 0.152431
379 1 0.70333 0.45574 0.152619
380 1 0.804078 0.402545 0.102666
381 1 0.854728 0.456335 0.103632
382 1 0.854168 0.402349 0.153572
383 1 0.804631 0.45632 0.153227
384 1 0.904004 0.402561 0.104729
385 1 0.952864 0.456417 0.106017
386 1 0.952616 0.401551 0.154635
387 1 0.903495 0.455571 0.154113
388 1 0.000276338 0.505554 0.100591
389 1 0.0970007 0.508382 0.103987
390 1 0.147736 0.557374 0.102823
391 1 0.146362 0.507529 0.153389
392 1 0.196548 0.507796 0.103091
393 1 0.244505 0.562359 0.102754
394 1 0.245534 0.508189 0.153498
395 1 0.1965 0.558964 0.152811
396 1 0.295688 0.508362 0.102303
397 1 0.346612 0.560475 0.101493
398 1 0.346912 0.508132 0.152387
399 1 0.295942 0.560708 0.152962
400 1 0.398019 0.507958 0.101507
401 1 0.448927 0.561813 0.101493
402 1 0.448809 0.508269 0.15159
403 1 0.397985 0.560691 0.151728
404 1 0.499731 0.508772 0.101479
405 1 0.550428 0.562052 0.101935
406 1 0.550452 0.508935 0.151822
407 1 0.499109 0.562265 0.152043
408 1 0.601574 0.509013 0.101826
409 1 0.652898 0.562592 0.101699
410 1 0.65233 0.509282 0.152305
411 1 0.601542 0.562185 0.151879
412 1 0.702596 0.508727 0.102425
413 1 0.75288 0.561341 0.102536
414 1 0.754136 0.509295 0.153522
415 1 0.703346 0.562652 0.152767
416 1 0.803863 0.508904 0.103175
417 1 0.853059 0.560762 0.102979
418 1 0.854035 0.508506 0.152811
419 1 0.803574 0.56093 0.152487
420 1 0.903725 0.509452 0.103617
421 1 0.247557 0.610147 0.153208
422 1 0.295059 0.613376 0.101911
423 1 0.345871 0.666217 0.103359
424 1 0.347141 0.611983 0.151914
425 1 0.297952 0.659031 0.15298
426 1 0.39754 0.614379 0.102237
427 1 0.447751 0.666635 0.102403
428 1 0.447893 0.615238 0.152996
429 1 0.396023 0.666481 0.153663
430 1 0.499533 0.614629 0.101773
431 1 0.551241 0.667065 0.102503
432 1 0.55028 0.615163 0.153147
433 1 0.499341 0.666512 0.153135
434 1 0.601564 0.615135 0.102074
435 1 0.653473 0.666514 0.100912
436 1 0.652689 0.614715 0.152124
437 1 0.601173 0.666401 0.154181
438 1 0.704498 0.61608 0.101227
439 1 0.75274 0.612738 0.15137
440 1 0.701806 0.663199 0.152327
441 1 0.802216 0.610195 0.101779
442 1 0.396442 0.716383 0.102549
443 1 0.446814 0.765474 0.105058
444 1 0.447227 0.71602 0.153978
445 1 0.499537 0.716957 0.102811
446 1 0.551043 0.766872 0.105184
447 1 0.551257 0.717008 0.154273
448 1 0.49889 0.763126 0.153102
449 1 0.603002 0.717874 0.103842
450 1 0.651999 0.710355 0.151571
451 1 0.498252 0.81262 0.106569
452 1 0.44876 0.0374547 0.199429
453 1 0.551393 0.0369439 0.200219
454 1 0.346971 0.134475 0.203936
455 1 0.298354 0.141155 0.252061
456 1 0.397899 0.0840679 0.202682
457 1 0.448591 0.13514 0.203102
458 1 0.449651 0.0839894 0.251751
459 1 0.397569 0.133339 0.253698
460 1 0.500205 0.0834023 0.204107
461 1 0.551936 0.135026 0.203171
462 1 0.550738 0.0838987 0.251962
463 1 0.50017 0.135693 0.252318
464 1 0.602701 0.0837929 0.202806
465 1 0.653597 0.134294 0.203134
466 1 0.60279 0.133121 0.253622
467 1 0.751675 0.141684 0.201831
468 1 0.702977 0.138995 0.250828
469 1 0.246232 0.240546 0.201326
470 1 0.248491 0.190918 0.251433
471 1 0.200925 0.242888 0.25136
472 1 0.296612 0.187968 0.20177
473 1 0.34768 0.241346 0.202017
474 1 0.347612 0.188708 0.252071
475 1 0.296509 0.240708 0.252369
476 1 0.398045 0.18727 0.203051
477 1 0.449047 0.240636 0.202195
478 1 0.448532 0.186511 0.253177
479 1 0.398429 0.240944 0.252373
480 1 0.499939 0.188146 0.202255
481 1 0.550755 0.240716 0.202234
482 1 0.551442 0.186411 0.253153
483 1 0.499819 0.240036 0.252268
484 1 0.602108 0.1871 0.202973
485 1 0.651742 0.241745 0.202054
486 1 0.651916 0.187707 0.252134
487 1 0.601033 0.24115 0.252112
488 1 0.702569 0.189251 0.201901
489 1 0.753902 0.240822 0.202827
490 1 0.754499 0.188497 0.25223
491 1 0.703223 0.2409 0.252084
492 1 0.803238 0.190197 0.201355
493 1 0.8534 0.241842 0.202529
494 1 0.804948 0.241195 0.252086
495 1 0.147903 0.34695 0.201796
496 1 0.194744 0.293627 0.203846
497 1 0.245121 0.347389 0.203026
498 1 0.247197 0.294358 0.251322
499 1 0.195018 0.346482 0.252806
500 1 0.29715 0.294205 0.201771
501 1 0.347382 0.34746 0.202103
502 1 0.347109 0.293943 0.25262
503 1 0.296429 0.347257 0.252686
504 1 0.398563 0.294347 0.202154
505 1 0.448979 0.347945 0.201914
506 1 0.449117 0.294214 0.251949
507 1 0.397832 0.347482 0.251877
508 1 0.499585 0.294146 0.20186
509 1 0.550058 0.348251 0.201657
510 1 0.550274 0.294541 0.251622
511 1 0.499503 0.348152 0.251469
512 1 0.601209 0.294926 0.201888
513 1 0.652479 0.348442 0.201995
514 1 0.652292 0.294878 0.251724
515 1 0.601227 0.348367 0.251243
516 1 0.703099 0.294695 0.202319
517 1 0.753286 0.348463 0.201916
518 1 0.754841 0.294098 0.252551
519 1 0.704005 0.348291 0.252005
520 1 0.804008 0.294489 0.202628
521 1 0.855798 0.348558 0.204988
522 1 0.852958 0.294901 0.251182
523 1 0.803626 0.348346 0.251256
524 1 0.901436 0.294604 0.201543
525 1 0.147982 0.455119 0.201442
526 1 0.193733 0.400769 0.205157
527 1 0.244628 0.454284 0.203665
528 1 0.245273 0.399906 0.252397
529 1 0.194345 0.454173 0.253194
530 1 0.296473 0.400732 0.202507
531 1 0.347152 0.454348 0.20208
532 1 0.347175 0.400855 0.252181
533 1 0.296208 0.454208 0.252084
534 1 0.397982 0.40117 0.20186
535 1 0.448308 0.455069 0.20166
536 1 0.448143 0.401504 0.251629
537 1 0.397241 0.454725 0.252177
538 1 0.499328 0.401927 0.201602
539 1 0.550442 0.455394 0.201791
540 1 0.550401 0.401698 0.25131
541 1 0.499112 0.45499 0.251287
542 1 0.601438 0.402006 0.201753
543 1 0.652523 0.455806 0.201857
544 1 0.65274 0.401959 0.251363
545 1 0.601747 0.455355 0.251269
546 1 0.703621 0.402246 0.20223
547 1 0.755125 0.456101 0.203164
548 1 0.755176 0.402385 0.252632
549 1 0.703689 0.455658 0.251585
550 1 0.804725 0.402733 0.202956
551 1 0.854171 0.455506 0.202847
552 1 0.853816 0.401806 0.251382
553 1 0.806294 0.456083 0.253316
554 1 0.901848 0.402444 0.201605
555 1 0.195177 0.507764 0.203283
556 1 0.24494 0.560528 0.203201
557 1 0.244599 0.507767 0.252148
558 1 0.295654 0.507805 0.202805
559 1 0.346166 0.56146 0.203341
560 1 0.346276 0.50763 0.252414
561 1 0.294731 0.560353 0.252606
562 1 0.397528 0.508167 0.202136
563 1 0.448541 0.561472 0.202177
564 1 0.448146 0.508278 0.251747
565 1 0.396749 0.561498 0.252342
566 1 0.499279 0.508459 0.201674
567 1 0.550112 0.561966 0.201782
568 1 0.550629 0.508451 0.251314
569 1 0.499628 0.56154 0.251753
570 1 0.601607 0.509302 0.201901
571 1 0.653066 0.56291 0.202891
572 1 0.653044 0.508949 0.251821
573 1 0.602009 0.562206 0.251981
574 1 0.703648 0.509574 0.202368
575 1 0.754397 0.56254 0.20201
576 1 0.754925 0.509944 0.251079
577 1 0.704637 0.56259 0.251699
578 1 0.805018 0.508856 0.202855
579 1 0.295479 0.612231 0.203606
580 1 0.346763 0.661382 0.201686
581 1 0.344876 0.61467 0.253669
582 1 0.397241 0.613346 0.202759
583 1 0.44697 0.667585 0.204741
584 1 0.448325 0.614563 0.252454
585 1 0.396806 0.663131 0.251897
586 1 0.499129 0.616187 0.203289
587 1 0.55124 0.668149 0.205114
588 1 0.550669 0.614781 0.252259
589 1 0.499368 0.667635 0.253696
590 1 0.602 0.614414 0.202907
591 1 0.6526 0.664625 0.202311
592 1 0.65409 0.615792 0.253004
593 1 0.601803 0.664317 0.251795
594 1 0.70389 0.614566 0.202575
595 1 0.49888 0.714655 0.201807
596 1 0.347521 0.138548 0.300583
597 1 0.448013 0.132488 0.303547
598 1 0.397849 0.136675 0.350774
599 1 0.500173 0.0871083 0.299147
600 1 0.552405 0.132157 0.303731
601 1 0.500144 0.132433 0.352366
602 1 0.653307 0.136665 0.301836
603 1 0.603319 0.135414 0.351851
604 1 0.70148 0.140686 0.350863
605 1 0.245797 0.240022 0.302158
606 1 0.295893 0.187706 0.302416
607 1 0.346433 0.239571 0.302656
608 1 0.345855 0.185532 0.35219
609 1 0.295334 0.239598 0.351141
610 1 0.39796 0.187091 0.302314
611 1 0.449264 0.239996 0.301922
612 1 0.449278 0.185744 0.351531
613 1 0.397693 0.239204 0.351461
614 1 0.500139 0.18492 0.302806
615 1 0.55027 0.240364 0.301779
616 1 0.550879 0.185555 0.351467
617 1 0.500039 0.239733 0.351162
618 1 0.601548 0.186588 0.302147
619 1 0.652175 0.241309 0.301325
620 1 0.652142 0.188515 0.350789
621 1 0.60098 0.240994 0.350948
622 1 0.7038 0.187775 0.300713
623 1 0.755162 0.240658 0.300839
624 1 0.752541 0.190443 0.34989
625 1 0.703987 0.24145 0.350019
626 1 0.801448 0.243016 0.350398
627 1 0.199834 0.293081 0.298415
628 1 0.24376 0.346785 0.303092
629 1 0.243936 0.292022 0.35141
630 1 0.294997 0.293463 0.302707
631 1 0.346884 0.347002 0.302162
632 1 0.346708 0.292941 0.351348
633 1 0.29505 0.346421 0.351458
634 1 0.397963 0.293568 0.301839
635 1 0.448553 0.347911 0.301314
636 1 0.448805 0.293553 0.350928
637 1 0.397805 0.34723 0.351086
638 1 0.499677 0.294193 0.301317
639 1 0.550499 0.348222 0.301039
640 1 0.550354 0.294262 0.350885
641 1 0.499676 0.347681 0.350621
642 1 0.601146 0.294802 0.301193
643 1 0.652463 0.348229 0.300924
644 1 0.652437 0.294867 0.350446
645 1 0.601649 0.348377 0.350502
646 1 0.703928 0.294684 0.301139
647 1 0.756119 0.348217 0.301972
648 1 0.755586 0.294977 0.350543
649 1 0.704074 0.348153 0.350528
650 1 0.806478 0.293854 0.302246
651 1 0.851472 0.347999 0.297091
652 1 0.807832 0.348057 0.349889
653 1 0.196641 0.401279 0.300223
654 1 0.245965 0.453346 0.301226
655 1 0.244081 0.39977 0.350765
656 1 0.197619 0.451713 0.349156
657 1 0.29581 0.400116 0.301972
658 1 0.346058 0.45437 0.302482
659 1 0.34611 0.400965 0.35158
660 1 0.29391 0.454239 0.352403
661 1 0.397344 0.401046 0.301863
662 1 0.44844 0.454909 0.301453
663 1 0.448812 0.401423 0.350848
664 1 0.39744 0.454821 0.351115
665 1 0.499407 0.401572 0.301023
666 1 0.550563 0.455035 0.300793
667 1 0.55068 0.401571 0.350342
668 1 0.499689 0.455054 0.350828
669 1 0.601812 0.401907 0.300755
670 1 0.653012 0.455226 0.301318
671 1 0.652972 0.401792 0.350706
672 1 0.60168 0.454907 0.350708
673 1 0.703771 0.401355 0.301389
674 1 0.754202 0.455343 0.300883
675 1 0.75582 0.401951 0.350379
676 1 0.704709 0.455563 0.350883
677 1 0.807068 0.402779 0.302252
678 1 0.803141 0.455835 0.348768
679 1 0.199262 0.503679 0.301983
680 1 0.246443 0.556957 0.302967
681 1 0.243348 0.507226 0.353263
682 1 0.294815 0.507576 0.303069
683 1 0.346125 0.560437 0.302228
684 1 0.345909 0.508558 0.351825
685 1 0.294655 0.561696 0.352444
686 1 0.397296 0.508001 0.302089
687 1 0.448021 0.561283 0.30136
688 1 0.448418 0.508632 0.351472
689 1 0.396718 0.562711 0.351896
690 1 0.499503 0.508128 0.301046
691 1 0.551083 0.56171 0.301334
692 1 0.55078 0.508281 0.350742
693 1 0.499689 0.561136 0.350876
694 1 0.601692 0.508258 0.301265
695 1 0.652884 0.561529 0.301258
696 1 0.653064 0.508559 0.350779
697 1 0.60227 0.562434 0.350691
698 1 0.704612 0.508758 0.301565
699 1 0.752804 0.559313 0.301613
700 1 0.755941 0.509549 0.351951
701 1 0.703883 0.561818 0.350778
702 1 0.800218 0.506923 0.300795
703 1 0.296512 0.607772 0.30217
704 1 0.346874 0.613792 0.350305
705 1 0.396252 0.614477 0.301382
706 1 0.448036 0.665225 0.301602
707 1 0.448983 0.61348 0.350629
708 1 0.400235 0.66137 0.350854
709 1 0.49965 0.614725 0.301234
710 1 0.55104 0.665461 0.301573
711 1 0.550428 0.61425 0.350849
712 1 0.499596 0.665247 0.350411
713 1 0.602938 0.615337 0.301238
714 1 0.652944 0.615355 0.35036
715 1 0.598972 0.662705 0.351317
716 1 0.702453 0.609736 0.301975
717 1 0.448717 0.135159 0.400733
718 1 0.400194 0.138251 0.449967
719 1 0.551641 0.13476 0.401032
720 1 0.499585 0.134624 0.450077
721 1 0.653177 0.137117 0.400503
722 1 0.602846 0.135561 0.449963
723 1 0.702104 0.140813 0.448893
724 1 0.248734 0.241312 0.400295
725 1 0.297585 0.191196 0.401082
726 1 0.34691 0.239462 0.40078
727 1 0.346295 0.18549 0.449931
728 1 0.295388 0.239657 0.44966
729 1 0.396775 0.185477 0.400293
730 1 0.448943 0.239084 0.400429
731 1 0.449358 0.186418 0.449945
732 1 0.397627 0.238385 0.449502
733 1 0.500288 0.185482 0.400791
734 1 0.550577 0.239886 0.400639
735 1 0.550954 0.185593 0.450328
736 1 0.500067 0.239785 0.450047
737 1 0.601505 0.186809 0.400512
738 1 0.652683 0.241233 0.399871
739 1 0.652333 0.188351 0.449622
740 1 0.60127 0.240459 0.44981
741 1 0.704292 0.188724 0.399744
742 1 0.755351 0.240543 0.399331
743 1 0.753146 0.190509 0.449042
744 1 0.704119 0.241008 0.449337
745 1 0.803386 0.242617 0.447947
746 1 0.242027 0.345533 0.398231
747 1 0.242911 0.293186 0.447164
748 1 0.196876 0.348003 0.449874
749 1 0.295306 0.29315 0.399873
750 1 0.34672 0.347141 0.40015
751 1 0.34659 0.293056 0.449047
752 1 0.294066 0.346546 0.447577
753 1 0.39812 0.293112 0.400292
754 1 0.448874 0.347485 0.40001
755 1 0.44875 0.293213 0.44955
756 1 0.397746 0.347216 0.449049
757 1 0.499525 0.293575 0.40028
758 1 0.550607 0.347786 0.400002
759 1 0.55057 0.294042 0.449656
760 1 0.499605 0.347266 0.449313
761 1 0.601497 0.294467 0.400179
762 1 0.652859 0.348235 0.399871
763 1 0.652761 0.294481 0.449164
764 1 0.601691 0.34791 0.449501
765 1 0.704043 0.294375 0.399333
766 1 0.756844 0.348464 0.398522
767 1 0.754803 0.294173 0.447668
768 1 0.704359 0.348136 0.448221
769 1 0.806792 0.294295 0.399218
770 1 0.849619 0.349775 0.401963
771 1 0.804411 0.348037 0.448927
772 1 0.198063 0.400133 0.399697
773 1 0.242006 0.454827 0.401745
774 1 0.243995 0.400473 0.448576
775 1 0.293763 0.400668 0.400022
776 1 0.346378 0.454623 0.400542
777 1 0.346203 0.400747 0.448781
778 1 0.295097 0.454712 0.449032
779 1 0.397723 0.401227 0.400054
780 1 0.44854 0.454986 0.40038
781 1 0.448658 0.40108 0.449353
782 1 0.397342 0.454806 0.449445
783 1 0.499943 0.40133 0.400114
784 1 0.550623 0.455081 0.400291
785 1 0.5507 0.401344 0.449641
786 1 0.49954 0.454933 0.449727
787 1 0.601586 0.401436 0.400126
788 1 0.652834 0.45507 0.400118
789 1 0.652951 0.401728 0.449136
790 1 0.601664 0.455195 0.449582
791 1 0.704551 0.402003 0.399688
792 1 0.756493 0.45638 0.399529
793 1 0.756148 0.402347 0.447335
794 1 0.704807 0.455726 0.448648
795 1 0.807617 0.403821 0.397566
796 1 0.851691 0.400994 0.450419
797 1 0.80596 0.455633 0.44843
798 1 0.248903 0.556782 0.401431
799 1 0.243973 0.508106 0.449175
800 1 0.29571 0.507613 0.401141
801 1 0.344662 0.563404 0.40045
802 1 0.346239 0.509996 0.449938
803 1 0.294886 0.562129 0.450603
804 1 0.396918 0.508944 0.400411
805 1 0.447786 0.562711 0.401022
806 1 0.447956 0.508456 0.4499
807 1 0.397068 0.562246 0.450086
808 1 0.4995 0.508616 0.400595
809 1 0.551241 0.56187 0.400414
810 1 0.550683 0.508732 0.449978
811 1 0.498933 0.561918 0.45011
812 1 0.601684 0.508509 0.400338
813 1 0.652505 0.562072 0.400245
814 1 0.653118 0.508869 0.449413
815 1 0.602343 0.56281 0.45013
816 1 0.704068 0.508577 0.400099
817 1 0.750478 0.560778 0.399794
818 1 0.756643 0.509732 0.447838
819 1 0.704243 0.562257 0.449202
820 1 0.347235 0.610652 0.450339
821 1 0.396188 0.616 0.401809
822 1 0.450254 0.663414 0.399218
823 1 0.447554 0.616278 0.450376
824 1 0.49972 0.614311 0.400714
825 1 0.549685 0.66495 0.400447
826 1 0.550337 0.614187 0.450346
827 1 0.499827 0.664968 0.450561
828 1 0.602989 0.615456 0.400543
829 1 0.653075 0.615668 0.449785
830 1 0.598419 0.662954 0.449927
831 1 0.701013 0.610633 0.399752
832 1 0.448175 0.135359 0.499316
833 1 0.397426 0.136843 0.549454
834 1 0.551033 0.132885 0.498886
835 1 0.551465 0.087548 0.552722
836 1 0.49901 0.132336 0.547477
837 1 0.653937 0.13672 0.498404
838 1 0.60325 0.132949 0.547468
839 1 0.703566 0.138524 0.548802
840 1 0.244317 0.241084 0.496876
841 1 0.247621 0.193467 0.547312
842 1 0.19668 0.241982 0.548007
843 1 0.295986 0.190467 0.498992
844 1 0.34684 0.239306 0.498358
845 1 0.345118 0.185037 0.547378
846 1 0.296496 0.241067 0.547723
847 1 0.396487 0.185663 0.499411
848 1 0.448398 0.239405 0.499126
849 1 0.448225 0.18625 0.548316
850 1 0.396862 0.239504 0.54819
851 1 0.499954 0.185642 0.499346
852 1 0.550665 0.240065 0.499474
853 1 0.550655 0.185449 0.548031
854 1 0.499322 0.240152 0.548537
855 1 0.601657 0.186211 0.499414
856 1 0.652848 0.240679 0.498936
857 1 0.652786 0.18727 0.548122
858 1 0.601618 0.240677 0.548384
859 1 0.704828 0.187689 0.498925
860 1 0.75641 0.240357 0.498045
861 1 0.755018 0.187406 0.547247
862 1 0.70414 0.240581 0.547501
863 1 0.847335 0.245328 0.497904
864 1 0.804826 0.239707 0.547505
865 1 0.147652 0.29339 0.547829
866 1 0.101078 0.34584 0.550112
867 1 0.195869 0.29421 0.497901
868 1 0.245291 0.346487 0.497532
869 1 0.245446 0.293141 0.546874