ITEM: TIMESTEP
1100
ITEM: NUMBER OF ATOMS
1875
ITEM: BOX BOUNDS xy xz yz pp pp pp
3.8893007076355957e-01 4.0420077496151052e+01 -7.6658418272411485e-03
1.0245462220599535e+00 3.9792082378141245e+01 1.6673408741628645e-02
3.6147907878222441e-01 4.0438520921217531e+01 1.6628600200821530e-02
ITEM: ATOMS id type xs ys zs
1 1 0.346718 0.0323778 0.00137213
2 1 0.395604 0.982133 0.00207206
3 1 0.449054 0.028014 0.00157265
4 1 0.445718 0.983287 0.0557976
5 1 0.395857 0.0314652 0.053114
6 1 0.502565 0.974496 0.0035264
7 1 0.552032 0.0273668 0.00203403
8 1 0.551994 0.97631 0.0565025
9 1 0.50034 0.0285893 0.0519231
10 1 0.608026 0.982492 0.000904321
11 1 0.655622 0.0328293 0.00107354
12 1 0.603106 0.0309397 0.0514206
13 1 0.245716 0.133288 0.00216281
14 1 0.199396 0.140016 0.0530868
15 1 0.296424 0.0829376 0.00122548
16 1 0.347144 0.135362 0.00128359
17 1 0.346225 0.0837219 0.0512087
18 1 0.295288 0.134809 0.0516853
19 1 0.398575 0.0824521 0.00184068
20 1 0.449616 0.135096 0.00116898
21 1 0.448952 0.0810181 0.0516866
22 1 0.398334 0.13603 0.0508325
23 1 0.500292 0.0809096 0.00121426
24 1 0.551285 0.135124 0.00131153
25 1 0.550959 0.0816525 0.0512535
26 1 0.499969 0.134727 0.0509787
27 1 0.602433 0.0821984 0.00125181
28 1 0.653391 0.134835 0.00131461
29 1 0.654768 0.0825424 0.0514277
30 1 0.602386 0.135271 0.0511484
31 1 0.705716 0.0827136 0.00164241
32 1 0.756227 0.133955 0.00107978
33 1 0.752063 0.0882336 0.0525965
34 1 0.703952 0.136235 0.051759
35 1 0.852573 0.137574 0.00162966
36 1 0.803684 0.135669 0.0522018
37 1 1.00001 0.187795 0.00415375
38 1 0.0497457 0.239272 0.00211174
39 1 0.0496644 0.191591 0.0517606
40 1 1.00045 0.2399 0.0540379
41 1 0.0985327 0.185351 0.00256123
42 1 0.147178 0.239373 0.00232033
43 1 0.147674 0.187656 0.0525238
44 1 0.0986018 0.239498 0.0537832
45 1 0.196319 0.185794 0.00209353
46 1 0.246283 0.240959 0.00163901
47 1 0.24718 0.188858 0.0523204
48 1 0.196242 0.239827 0.0527785
49 1 0.296439 0.187754 0.00149193
50 1 0.347336 0.241417 0.00161416
51 1 0.34693 0.188229 0.051574
52 1 0.29676 0.241722 0.0522975
53 1 0.398468 0.188687 0.000963246
54 1 0.449322 0.241994 0.00105236
55 1 0.449365 0.188866 0.0509195
56 1 0.398345 0.241574 0.051592
57 1 0.500368 0.188547 0.00102659
58 1 0.551117 0.241657 0.00135644
59 1 0.551027 0.188386 0.0511467
60 1 0.500053 0.24159 0.0515957
61 1 0.602364 0.188394 0.00122063
62 1 0.653308 0.241331 0.00140038
63 1 0.653161 0.188489 0.0515091
64 1 0.601989 0.241299 0.0516687
65 1 0.70465 0.187891 0.00143697
66 1 0.754539 0.240998 0.00231229
67 1 0.755159 0.186616 0.0531388
68 1 0.70425 0.240702 0.0522506
69 1 0.804492 0.187591 0.00269329
70 1 0.854603 0.239393 0.00291926
71 1 0.855258 0.185594 0.0540291
72 1 0.805136 0.239755 0.0532327
73 1 0.904091 0.184968 0.00354925
74 1 0.951483 0.239423 0.00268197
75 1 0.951202 0.190632 0.0543351
76 1 0.903256 0.240933 0.0538827
77 1 1.00047 0.293077 0.00207344
78 1 0.0486736 0.347788 0.00182477
79 1 0.0488211 0.293349 0.0530512
80 1 0.000189481 0.348201 0.0534434
81 1 0.0982091 0.293626 0.00210194
82 1 0.147195 0.348054 0.00192973
83 1 0.147221 0.293805 0.0525965
84 1 0.0973949 0.348458 0.0522416
85 1 0.196689 0.294187 0.00185479
86 1 0.246769 0.347614 0.00207899
87 1 0.245896 0.294197 0.052804
88 1 0.196219 0.348051 0.053041
89 1 0.296904 0.294496 0.00174408
90 1 0.347416 0.347687 0.00162957
91 1 0.347368 0.29463 0.0522063
92 1 0.29662 0.347529 0.0525949
93 1 0.39818 0.29476 0.00143935
94 1 0.449059 0.348084 0.00161791
95 1 0.449128 0.294911 0.0518039
96 1 0.398105 0.347821 0.0519994
97 1 0.499964 0.294837 0.00151346
98 1 0.550873 0.347755 0.00181671
99 1 0.550927 0.294454 0.0519008
100 1 0.499944 0.347865 0.0520333
101 1 0.60211 0.29447 0.0015825
102 1 0.65253 0.347438 0.00161543
103 1 0.652969 0.293939 0.0520121
104 1 0.601871 0.347205 0.0521858
105 1 0.70362 0.294199 0.00170322
106 1 0.75381 0.347841 0.00159087
107 1 0.7543 0.294481 0.052162
108 1 0.703215 0.347642 0.0519296
109 1 0.804606 0.294229 0.00222212
110 1 0.853911 0.348343 0.00175682
111 1 0.854084 0.294762 0.0530028
112 1 0.804327 0.348456 0.0523573
113 1 0.90292 0.293963 0.00212264
114 1 0.951744 0.347828 0.00184365
115 1 0.952254 0.293802 0.0536348
116 1 0.903257 0.348312 0.0529877
117 1 9.08598e-05 0.402367 0.00187312
118 1 0.0481257 0.457621 0.00226359
119 1 0.0482745 0.402773 0.0534298
120 1 -1.9228e-05 0.45648 0.0533449
121 1 0.0971607 0.402484 0.00177967
122 1 0.146715 0.455358 0.00218915
123 1 0.14621 0.402143 0.0527183
124 1 0.0959981 0.45688 0.0537801
125 1 0.196784 0.401254 0.00205862
126 1 0.246992 0.454551 0.00221985
127 1 0.24641 0.400967 0.052921
128 1 0.196592 0.454618 0.052675
129 1 0.296954 0.400973 0.0021437
130 1 0.347023 0.454604 0.001928
131 1 0.347105 0.401058 0.0524174
132 1 0.296675 0.454853 0.0525044
133 1 0.397897 0.401054 0.00173798
134 1 0.448779 0.454219 0.00186794
135 1 0.448831 0.401115 0.051944
136 1 0.397576 0.454356 0.0520221
137 1 0.49987 0.400885 0.0016867
138 1 0.550281 0.454022 0.00179596
139 1 0.550729 0.400878 0.0521506
140 1 0.499607 0.454451 0.0520042
141 1 0.601465 0.400721 0.00198143
142 1 0.65204 0.454108 0.00160777
143 1 0.652197 0.400873 0.0520847
144 1 0.601339 0.454333 0.0518292
145 1 0.702778 0.400803 0.00173837
146 1 0.752993 0.454326 0.00166989
147 1 0.753474 0.401272 0.0521943
148 1 0.702515 0.454218 0.0520621
149 1 0.803786 0.401517 0.0017934
150 1 0.853813 0.45551 0.0021816
151 1 0.854227 0.402237 0.0529183
152 1 0.803767 0.454915 0.0525168
153 1 0.90326 0.402469 0.00197485
154 1 0.951765 0.457351 0.0026614
155 1 0.951785 0.402661 0.0535665
156 1 0.90404 0.457118 0.0542312
157 1 0.999185 0.512213 0.0035238
158 1 0.0481487 0.562969 0.00317492
159 1 0.0480399 0.511471 0.0540973
160 1 0.0974957 0.510379 0.00272355
161 1 0.149033 0.562268 0.00296992
162 1 0.146731 0.508286 0.0530686
163 1 0.0993271 0.560723 0.0522691
164 1 0.197001 0.508567 0.00260076
165 1 0.244538 0.5635 0.00213526
166 1 0.245928 0.509099 0.0524565
167 1 0.195759 0.562769 0.0534565
168 1 0.296286 0.508764 0.00192084
169 1 0.347088 0.56091 0.00123008
170 1 0.346854 0.508012 0.0520475
171 1 0.295578 0.561494 0.0520383
172 1 0.397813 0.507707 0.00154469
173 1 0.448761 0.560656 0.0010691
174 1 0.44838 0.507662 0.0517876
175 1 0.397858 0.5611 0.0518632
176 1 0.499604 0.507502 0.00149168
177 1 0.550429 0.560818 0.00105793
178 1 0.550536 0.507787 0.0517755
179 1 0.499452 0.560873 0.0512588
180 1 0.600966 0.507315 0.00134536
181 1 0.65163 0.56055 0.00108492
182 1 0.652135 0.50784 0.051739
183 1 0.601259 0.561044 0.0513497
184 1 0.702385 0.507676 0.00121265
185 1 0.752751 0.561963 0.00150885
186 1 0.752552 0.507314 0.0517781
187 1 0.702941 0.561491 0.0514435
188 1 0.803358 0.508258 0.00181261
189 1 0.853604 0.563104 0.00220331
190 1 0.853469 0.509286 0.053338
191 1 0.801975 0.56032 0.0519417
192 1 0.902912 0.509959 0.00292203
193 1 0.949559 0.563367 0.00201913
194 1 0.952082 0.511785 0.0545351
195 1 0.901225 0.561163 0.0531634
196 1 0.0990203 0.608178 -1.11801e-05
197 1 0.249411 0.662706 0.00174689
198 1 0.246075 0.613693 0.05163
199 1 0.296358 0.613207 0.00116267
200 1 0.346431 0.664486 0.00063024
201 1 0.346399 0.613961 0.0522687
202 1 0.295901 0.664938 0.0521758
203 1 0.397712 0.613299 0.000857228
204 1 0.448137 0.666558 0.000351254
205 1 0.448421 0.613908 0.0513221
206 1 0.396796 0.666005 0.0516035
207 1 0.499578 0.614029 0.000614024
208 1 0.550908 0.667471 0.00030998
209 1 0.550517 0.614123 0.0509075
210 1 0.499475 0.666564 0.0504965
211 1 0.601818 0.614467 0.000941224
212 1 0.653548 0.668411 0.000981693
213 1 0.652334 0.614579 0.0509415
214 1 0.601609 0.667477 0.0507042
215 1 0.70216 0.613967 0.00118639
216 1 0.751787 0.662786 0.000143627
217 1 0.753481 0.615636 0.0521157
218 1 0.70208 0.666396 0.0500141
219 1 0.803304 0.614862 0.00242925
220 1 0.849707 0.608957 0.053299
221 1 0.297662 0.712287 0.00151295
222 1 0.34622 0.715086 0.0505941
223 1 0.395331 0.717809 0.00055315
224 1 0.445706 0.771289 0.0012836
225 1 0.447597 0.717812 0.0509468
226 1 0.396631 0.764438 0.0516491
227 1 0.499259 0.720284 2.40072e-06
228 1 0.552044 0.773342 0.00210128
229 1 0.551302 0.718748 0.0510257
230 1 0.499279 0.768013 0.0531786
231 1 0.603551 0.721968 0.00104274
232 1 0.649838 0.717589 0.0518839
233 1 0.599426 0.76953 0.0542835
234 1 0.44392 0.862546 0.00830382
235 1 0.445576 0.81331 0.0565179
236 1 0.500854 0.821962 0.00801473
237 1 0.566159 0.857779 0.00614739
238 1 0.548272 0.821136 0.0602767
239 1 0.489402 0.865141 0.0644872
240 1 0.611228 0.808375 -0.000574351
241 1 0.445909 0.933336 0.00829077
242 1 0.506042 0.896218 0.00613754
243 1 0.565438 0.930975 0.00574016
244 1 0.550122 0.895719 0.0620889
245 1 0.494206 0.934966 0.0615416
246 1 0.348776 0.0383259 0.102863
247 1 0.446974 0.0315203 0.105457
248 1 0.397268 0.0369298 0.152267
249 1 0.499444 0.985278 0.105531
250 1 0.550853 0.031388 0.103705
251 1 0.499424 0.0331837 0.154541
252 1 0.60163 0.98688 0.102115
253 1 0.651382 0.0345323 0.101894
254 1 0.601556 0.0340009 0.151831
255 1 0.247458 0.137532 0.102117
256 1 0.298575 0.0870571 0.102373
257 1 0.347017 0.136322 0.102127
258 1 0.346584 0.0856363 0.152987
259 1 0.296151 0.136253 0.152808
260 1 0.398097 0.0854179 0.101609
261 1 0.449382 0.136401 0.101045
262 1 0.448684 0.0854728 0.152143
263 1 0.397219 0.135926 0.153084
264 1 0.499214 0.0819805 0.101728
265 1 0.550644 0.135705 0.100912
266 1 0.550934 0.084778 0.15144
267 1 0.49987 0.135782 0.152287
268 1 0.602061 0.0833231 0.101193
269 1 0.653248 0.135129 0.101818
270 1 0.652692 0.0836151 0.151508
271 1 0.6029 0.135206 0.1522
272 1 0.702907 0.0848509 0.101408
273 1 0.754319 0.135 0.103498
274 1 0.704039 0.134153 0.152913
275 1 0.0493341 0.241676 0.103226
276 1 0.146615 0.239373 0.103617
277 1 0.0976884 0.246515 0.149382
278 1 0.19665 0.188313 0.103039
279 1 0.245178 0.240648 0.103926
280 1 0.245426 0.188043 0.152858
281 1 0.19425 0.240819 0.154191
282 1 0.296382 0.188158 0.103031
283 1 0.347466 0.241079 0.102292
284 1 0.34688 0.187556 0.15324
285 1 0.296066 0.240844 0.15268
286 1 0.398238 0.188547 0.101692
287 1 0.44903 0.241407 0.101844
288 1 0.44878 0.188183 0.152274
289 1 0.397863 0.24072 0.152499
290 1 0.50012 0.188598 0.101501
291 1 0.55115 0.241423 0.101891
292 1 0.551336 0.187813 0.151802
293 1 0.500125 0.241035 0.151905
294 1 0.602092 0.188111 0.101589
295 1 0.653142 0.240889 0.102308
296 1 0.653426 0.187184 0.152481
297 1 0.602313 0.240355 0.152375
298 1 0.704223 0.187281 0.102994
299 1 0.754852 0.240471 0.102441
300 1 0.755353 0.187569 0.152179
301 1 0.704173 0.241171 0.152435
302 1 0.805994 0.185597 0.103739
303 1 0.853836 0.24169 0.103617
304 1 0.853605 0.19252 0.153388
305 1 0.804157 0.241515 0.153084
306 1 0.902652 0.192324 0.10424
307 1 0.953095 0.241236 0.105452
308 1 0.903923 0.24229 0.154586
309 1 0.000615992 0.294077 0.105025
310 1 0.0485234 0.348611 0.103894
311 1 0.0495806 0.295804 0.151792
312 1 0.000489759 0.348772 0.153742
313 1 0.0978875 0.295286 0.102384
314 1 0.145703 0.348345 0.104002
315 1 0.145375 0.294716 0.154433
316 1 0.0962096 0.347799 0.155035
317 1 0.194945 0.293473 0.103863
318 1 0.245604 0.347364 0.103334
319 1 0.244318 0.293754 0.153791
320 1 0.194817 0.347892 0.153784
321 1 0.296166 0.29418 0.102903
322 1 0.34719 0.347743 0.102385
323 1 0.347129 0.294336 0.152213
324 1 0.295901 0.347277 0.152807
325 1 0.398154 0.294388 0.102309
326 1 0.448922 0.347685 0.102173
327 1 0.448912 0.294019 0.152326
328 1 0.397753 0.347508 0.152403
329 1 0.499949 0.294438 0.102193
330 1 0.550877 0.347369 0.102276
331 1 0.551191 0.293889 0.152525
332 1 0.499776 0.347345 0.152264
333 1 0.602028 0.293984 0.102326
334 1 0.652612 0.347413 0.102086
335 1 0.652902 0.294254 0.152331
336 1 0.60183 0.347403 0.152278
337 1 0.703747 0.294313 0.102225
338 1 0.753937 0.34834 0.102644
339 1 0.753976 0.294882 0.152767
340 1 0.703117 0.34806 0.152344
341 1 0.804014 0.295315 0.102831
342 1 0.854787 0.348603 0.103925
343 1 0.854291 0.295075 0.153871
344 1 0.804815 0.348476 0.154039
345 1 0.904232 0.294408 0.104928
346 1 0.952168 0.348533 0.104695
347 1 0.952491 0.29574 0.154699
348 1 0.905236 0.348875 0.156171
349 1 2.63382e-05 0.403041 0.105224
350 1 0.0478157 0.455757 0.105995
351 1 0.0494833 0.400771 0.152867
352 1 0.0970424 0.402277 0.104052
353 1 0.145707 0.455495 0.103997
354 1 0.143876 0.40138 0.155811
355 1 0.0974659 0.45483 0.153593
356 1 0.195083 0.401436 0.10382
357 1 0.246033 0.454389 0.102904
358 1 0.244955 0.400945 0.153701
359 1 0.195344 0.454533 0.153712
360 1 0.296249 0.401025 0.103017
361 1 0.346707 0.454824 0.102588
362 1 0.346645 0.401087 0.152473
363 1 0.29544 0.454675 0.152985
364 1 0.397656 0.401059 0.102255
365 1 0.448522 0.454225 0.101946
366 1 0.4486 0.400808 0.151949
367 1 0.39763 0.454468 0.15217
368 1 0.499762 0.401026 0.10204
369 1 0.550568 0.454693 0.101923
370 1 0.550512 0.400832 0.151933
371 1 0.499487 0.454351 0.151661
372 1 0.601512 0.4009 0.102114
373 1 0.652163 0.454504 0.102172
374 1 0.652408 0.401188 0.152205
375 1 0.601364 0.45466 0.151742
376 1 0.703005 0.401309 0.102345
377 1 0.753526 0.454746 0.10269
378 1 0.754059 0.401855 0.153021
379 1 0.703304 0.454936 0.152662
380 1 0.804128 0.401815 0.103068
381 1 0.854194 0.456353 0.103806
382 1 0.85408 0.402279 0.153906
383 1 0.804586 0.456216 0.15366
384 1 0.903682 0.40271 0.10472
385 1 0.95234 0.456632 0.106092
386 1 0.951959 0.402191 0.154514
387 1 0.902728 0.455842 0.154159
388 1 0.000545801 0.505113 0.101488
389 1 0.0964742 0.508713 0.104038
390 1 0.147631 0.557571 0.102591
391 1 0.146188 0.507627 0.153218
392 1 0.196223 0.507808 0.103024
393 1 0.244158 0.562539 0.102747
394 1 0.244909 0.508502 0.153323
395 1 0.195921 0.559358 0.152623
396 1 0.295487 0.508542 0.102638
397 1 0.346483 0.560855 0.101761
398 1 0.34639 0.508054 0.152478
399 1 0.295465 0.561343 0.152823
400 1 0.397664 0.507686 0.102127
401 1 0.448449 0.561218 0.101995
402 1 0.448681 0.5076 0.151925
403 1 0.397494 0.560582 0.151931
404 1 0.499341 0.507935 0.101769
405 1 0.550294 0.56148 0.101551
406 1 0.550399 0.508306 0.151513
407 1 0.499326 0.5618 0.151791
408 1 0.601694 0.508119 0.10181
409 1 0.652881 0.561823 0.101408
410 1 0.652421 0.508665 0.151994
411 1 0.601566 0.561557 0.151445
412 1 0.702715 0.507813 0.102459
413 1 0.752465 0.560781 0.102359
414 1 0.753973 0.50903 0.153333
415 1 0.703028 0.562509 0.152523
416 1 0.803491 0.508675 0.103301
417 1 0.852501 0.560826 0.103336
418 1 0.853481 0.508813 0.153337
419 1 0.802904 0.561128 0.152534
420 1 0.903252 0.509567 0.10416
421 1 0.247258 0.610845 0.152816
422 1 0.29478 0.61387 0.101867
423 1 0.345244 0.666543 0.102995
424 1 0.346599 0.612442 0.152013
425 1 0.297733 0.659777 0.152764
426 1 0.396979 0.61466 0.102511
427 1 0.447316 0.666473 0.102249
428 1 0.447623 0.614904 0.152719
429 1 0.395396 0.66693 0.153654
430 1 0.499276 0.614206 0.101353
431 1 0.550997 0.666841 0.101709
432 1 0.550379 0.614474 0.15231
433 1 0.499255 0.66589 0.152451
434 1 0.601568 0.614633 0.101285
435 1 0.653209 0.666548 0.100293
436 1 0.652131 0.61462 0.151427
437 1 0.60054 0.666215 0.153032
438 1 0.704042 0.615533 0.101086
439 1 0.752117 0.612824 0.151194
440 1 0.701042 0.663336 0.151791
441 1 0.80132 0.610074 0.101699
442 1 0.395725 0.716127 0.101942
443 1 0.446156 0.764724 0.104623
444 1 0.446943 0.715634 0.153653
445 1 0.498999 0.716626 0.102438
446 1 0.550039 0.766625 0.104393
447 1 0.550689 0.716891 0.153611
448 1 0.49829 0.763 0.152764
449 1 0.602297 0.718299 0.10306
450 1 0.651064 0.710498 0.150888
451 1 0.497021 0.812365 0.106039
452 1 0.447573 0.0378195 0.20013
453 1 0.551355 0.0372788 0.199741
454 1 0.345593 0.134997 0.204218
455 1 0.297221 0.141661 0.253018
456 1 0.396892 0.0847057 0.203231
457 1 0.448046 0.13535 0.203188
458 1 0.449023 0.0846552 0.252007
459 1 0.396466 0.133892 0.253918
460 1 0.499737 0.0833272 0.204096
461 1 0.551894 0.134735 0.202466
462 1 0.550797 0.0843714 0.251407
463 1 0.500101 0.136076 0.251858
464 1 0.60261 0.0837141 0.202013
465 1 0.65427 0.133597 0.202883
466 1 0.603651 0.132638 0.253223
467 1 0.75237 0.140975 0.20197
468 1 0.703797 0.138726 0.251077
469 1 0.244852 0.240273 0.202073
470 1 0.24725 0.191053 0.25242
471 1 0.199788 0.243092 0.252126
472 1 0.295192 0.187978 0.202193
473 1 0.346716 0.240976 0.202409
474 1 0.346698 0.189003 0.25232
475 1 0.295406 0.240927 0.2529
476 1 0.397416 0.187239 0.203371
477 1 0.448745 0.240416 0.202527
478 1 0.448179 0.186549 0.253312
479 1 0.397958 0.241014 0.252429
480 1 0.500055 0.188059 0.202056
481 1 0.551346 0.240035 0.202114
482 1 0.552048 0.186012 0.252644
483 1 0.500165 0.239471 0.252166
484 1 0.60278 0.18645 0.202702
485 1 0.652991 0.241096 0.202391
486 1 0.652948 0.187109 0.251995
487 1 0.60195 0.240578 0.251904
488 1 0.703565 0.188691 0.202003
489 1 0.75476 0.240786 0.203311
490 1 0.755267 0.188161 0.252493
491 1 0.704352 0.240676 0.252384
492 1 0.803836 0.189995 0.202223
493 1 0.85422 0.241971 0.203329
494 1 0.805578 0.24103 0.252802
495 1 0.147004 0.347427 0.20226
496 1 0.193572 0.293666 0.2046
497 1 0.24399 0.347477 0.203182
498 1 0.246067 0.294775 0.251437
499 1 0.193824 0.347379 0.253097
500 1 0.29615 0.294 0.202271
501 1 0.346606 0.347683 0.202519
502 1 0.34632 0.294187 0.2526
503 1 0.295309 0.347987 0.252663
504 1 0.397609 0.294109 0.202345
505 1 0.44864 0.34726 0.202025
506 1 0.449107 0.293876 0.251846
507 1 0.397608 0.347516 0.251893
508 1 0.499947 0.293531 0.202147
509 1 0.550588 0.347478 0.201912
510 1 0.550572 0.293736 0.251642
511 1 0.499682 0.347531 0.251455
512 1 0.601987 0.294013 0.202273
513 1 0.652782 0.347872 0.202304
514 1 0.653128 0.294562 0.252062
515 1 0.601471 0.347816 0.25141
516 1 0.703826 0.294556 0.202693
517 1 0.753959 0.348408 0.202558
518 1 0.755504 0.294241 0.252939
519 1 0.704137 0.348565 0.252155
520 1 0.804912 0.294314 0.203345
521 1 0.85594 0.348797 0.205604
522 1 0.853683 0.295164 0.251954
523 1 0.804106 0.348751 0.2521
524 1 0.901796 0.295098 0.202076
525 1 0.147315 0.455091 0.201643
526 1 0.19307 0.401202 0.205368
527 1 0.243884 0.454632 0.203886
528 1 0.244352 0.400536 0.252583
529 1 0.193742 0.455042 0.253378
530 1 0.29552 0.400849 0.202535
531 1 0.34636 0.454629 0.202155
532 1 0.346399 0.401387 0.252058
533 1 0.295575 0.454866 0.252025
534 1 0.397488 0.401007 0.202119
535 1 0.44826 0.454305 0.201822
536 1 0.448429 0.401117 0.251634
537 1 0.397056 0.454702 0.251895
538 1 0.499383 0.400961 0.201702
539 1 0.550469 0.454793 0.201283
540 1 0.55055 0.401608 0.251062
541 1 0.499381 0.454907 0.251104
542 1 0.601438 0.401205 0.20159
543 1 0.652294 0.455338 0.201605
544 1 0.652519 0.401858 0.251309
545 1 0.601627 0.455307 0.25099
546 1 0.703618 0.401908 0.202435
547 1 0.755091 0.455989 0.203291
548 1 0.755461 0.402881 0.25292
549 1 0.703572 0.455927 0.251324
550 1 0.805129 0.40283 0.20348
551 1 0.854135 0.456032 0.203332
552 1 0.854048 0.402232 0.252135
553 1 0.806444 0.456513 0.253587
554 1 0.901521 0.403093 0.201933
555 1 0.194605 0.50789 0.203155
556 1 0.244339 0.56109 0.202532
557 1 0.244017 0.508705 0.252015
558 1 0.294965 0.508286 0.202477
559 1 0.345539 0.561677 0.203178
560 1 0.345782 0.507952 0.252089
561 1 0.293924 0.561041 0.25223
562 1 0.397206 0.507986 0.201991
563 1 0.448532 0.561103 0.201641
564 1 0.448317 0.507871 0.251371
565 1 0.396893 0.561261 0.251765
566 1 0.499467 0.507926 0.20133
567 1 0.550238 0.561536 0.201661
568 1 0.550603 0.508377 0.25112
569 1 0.499296 0.561191 0.251371
570 1 0.601551 0.508796 0.201381
571 1 0.652834 0.563022 0.202316
572 1 0.652966 0.509155 0.251247
573 1 0.602093 0.562326 0.251589
574 1 0.70358 0.50929 0.201888
575 1 0.753982 0.56269 0.201901
576 1 0.754801 0.510156 0.250916
577 1 0.704345 0.562875 0.250996
578 1 0.804676 0.509242 0.202996
579 1 0.294822 0.613151 0.203561
580 1 0.346376 0.661817 0.2016
581 1 0.344896 0.614751 0.253042
582 1 0.396913 0.613364 0.202387
583 1 0.446906 0.666836 0.204064
584 1 0.448279 0.614226 0.25201
585 1 0.396915 0.66337 0.251278
586 1 0.499299 0.615446 0.202706
587 1 0.55072 0.667457 0.204053
588 1 0.550367 0.614658 0.252126
589 1 0.499174 0.667266 0.253124
590 1 0.601519 0.614205 0.202365
591 1 0.65142 0.664768 0.201403
592 1 0.653802 0.616332 0.252489
593 1 0.60086 0.664376 0.251189
594 1 0.703243 0.614987 0.202075
595 1 0.498535 0.714142 0.20119
596 1 0.346607 0.139277 0.301154
597 1 0.447599 0.133157 0.303391
598 1 0.397776 0.137553 0.351154
599 1 0.500002 0.0877878 0.298767
600 1 0.552832 0.132453 0.303046
601 1 0.500398 0.132991 0.351885
602 1 0.654399 0.136055 0.301789
603 1 0.604045 0.135181 0.351194
604 1 0.702501 0.140333 0.351239
605 1 0.244817 0.240865 0.302683
606 1 0.294945 0.18843 0.303056
607 1 0.346072 0.240022 0.302418
608 1 0.345368 0.186039 0.352426
609 1 0.295131 0.240927 0.350713
610 1 0.397446 0.187451 0.302432
611 1 0.449331 0.240223 0.301737
612 1 0.449307 0.186424 0.351124
613 1 0.397304 0.240033 0.351006
614 1 0.500407 0.185116 0.302541
615 1 0.550974 0.239833 0.301326
616 1 0.551704 0.185476 0.350917
617 1 0.500312 0.239678 0.350854
618 1 0.602504 0.186262 0.301513
619 1 0.653362 0.240617 0.301066
620 1 0.653001 0.187997 0.350589
621 1 0.601862 0.240437 0.350311
622 1 0.704842 0.187364 0.301174
623 1 0.755789 0.24074 0.301227
624 1 0.753369 0.190615 0.350423
625 1 0.70455 0.241455 0.350081
626 1 0.801963 0.243772 0.350925
627 1 0.198696 0.293882 0.298474
628 1 0.242725 0.347662 0.302965
629 1 0.243106 0.293562 0.351125
630 1 0.294213 0.294447 0.302313
631 1 0.34643 0.347945 0.301589
632 1 0.346305 0.294201 0.350518
633 1 0.294323 0.34737 0.350987
634 1 0.39776 0.294003 0.301321
635 1 0.44888 0.347489 0.301111
636 1 0.448785 0.293747 0.350622
637 1 0.39781 0.347617 0.350418
638 1 0.500028 0.293791 0.301339
639 1 0.550647 0.347784 0.30082
640 1 0.550928 0.294094 0.350389
641 1 0.499898 0.347684 0.350462
642 1 0.601669 0.294302 0.300918
643 1 0.6527 0.348608 0.300979
644 1 0.65272 0.294768 0.349882
645 1 0.601696 0.348478 0.350072
646 1 0.704558 0.295089 0.30133
647 1 0.756175 0.348908 0.301937
648 1 0.75579 0.295454 0.350572
649 1 0.704131 0.348954 0.350278
650 1 0.807034 0.294177 0.302507
651 1 0.851792 0.348798 0.297986
652 1 0.807506 0.348521 0.349943
653 1 0.195698 0.402246 0.300346
654 1 0.245599 0.454173 0.301214
655 1 0.243413 0.400556 0.350669
656 1 0.197585 0.452881 0.349341
657 1 0.295213 0.401017 0.301986
658 1 0.345894 0.454948 0.302245
659 1 0.346014 0.401306 0.351038
660 1 0.293802 0.455089 0.352096
661 1 0.39735 0.40138 0.3014
662 1 0.448655 0.454923 0.301033
663 1 0.44903 0.401371 0.350312
664 1 0.39764 0.45494 0.350798
665 1 0.499772 0.401475 0.300684
666 1 0.550617 0.45521 0.300672
667 1 0.550742 0.401786 0.35025
668 1 0.499768 0.455298 0.350453
669 1 0.601561 0.401847 0.300622
670 1 0.653002 0.455538 0.300747
671 1 0.652893 0.402427 0.350264
672 1 0.601879 0.455287 0.350083
673 1 0.703816 0.402185 0.301132
674 1 0.754333 0.456296 0.300932
675 1 0.755737 0.402975 0.350161
676 1 0.704674 0.456466 0.350527
677 1 0.807321 0.403638 0.302893
678 1 0.803236 0.456958 0.349023
679 1 0.199358 0.504839 0.302277
680 1 0.246284 0.558099 0.30298
681 1 0.243623 0.50858 0.35326
682 1 0.294524 0.508344 0.302631
683 1 0.346197 0.560786 0.301369
684 1 0.346089 0.508895 0.351244
685 1 0.295526 0.56225 0.351797
686 1 0.397371 0.507977 0.301636
687 1 0.447825 0.561367 0.301131
688 1 0.448471 0.508679 0.350967
689 1 0.396786 0.563032 0.35142
690 1 0.499605 0.508416 0.300991
691 1 0.55101 0.561803 0.300929
692 1 0.551238 0.508713 0.350352
693 1 0.499636 0.561315 0.350711
694 1 0.601908 0.508637 0.300768
695 1 0.652818 0.562255 0.300772
696 1 0.653031 0.509216 0.350077
697 1 0.602506 0.563144 0.350337
698 1 0.704522 0.50957 0.301029
699 1 0.752677 0.560084 0.300951
700 1 0.755718 0.510715 0.351606
701 1 0.703904 0.56279 0.350164
702 1 0.800257 0.507752 0.300764
703 1 0.296725 0.608589 0.301549
704 1 0.346868 0.61422 0.349624
705 1 0.39621 0.614545 0.300766
706 1 0.447953 0.664967 0.301272
707 1 0.448809 0.613767 0.350578
708 1 0.399977 0.661482 0.350471
709 1 0.499446 0.614662 0.301093
710 1 0.550689 0.665596 0.301178
711 1 0.550317 0.614477 0.350656
712 1 0.499552 0.665398 0.350259
713 1 0.602848 0.615761 0.300928
714 1 0.6533 0.616211 0.350061
715 1 0.599028 0.663028 0.350688
716 1 0.702383 0.61043 0.300964
717 1 0.448972 0.135836 0.400137
718 1 0.399696 0.139109 0.448647
719 1 0.552283 0.13469 0.400156
720 1 0.500161 0.134841 0.448924
721 1 0.653613 0.136876 0.400439
722 1 0.603136 0.135366 0.449731
723 1 0.702253 0.140975 0.449103
724 1 0.248043 0.242721 0.399268
725 1 0.296527 0.192427 0.400352
726 1 0.346383 0.240718 0.400163
727 1 0.345968 0.186765 0.448758
728 1 0.294916 0.240725 0.448942
729 1 0.396919 0.186855 0.399852
730 1 0.44891 0.239941 0.399854
731 1 0.449672 0.18708 0.449048
732 1 0.397507 0.239604 0.448865
733 1 0.500792 0.185892 0.400007
734 1 0.551381 0.239997 0.399883
735 1 0.551461 0.18551 0.44944
736 1 0.500526 0.239973 0.449107
737 1 0.602181 0.186492 0.400224
738 1 0.652984 0.241151 0.39952
739 1 0.652531 0.188368 0.449544
740 1 0.601834 0.240826 0.449366
741 1 0.704692 0.188683 0.399815
742 1 0.755244 0.241259 0.399445
743 1 0.753209 0.19125 0.449043
744 1 0.703618 0.241595 0.448892
745 1 0.803234 0.243337 0.448443
746 1 0.241781 0.346966 0.398451
747 1 0.242878 0.293889 0.446843
748 1 0.196997 0.349098 0.450133
749 1 0.294896 0.294365 0.399405
750 1 0.346413 0.347887 0.399616
751 1 0.346625 0.294145 0.448616
752 1 0.294169 0.347501 0.447467
753 1 0.3978 0.293996 0.399855
754 1 0.449032 0.347627 0.399557
755 1 0.449247 0.293788 0.448992
756 1 0.398216 0.347661 0.448833
757 1 0.500013 0.293834 0.399689
758 1 0.551012 0.347907 0.39957
759 1 0.551048 0.294267 0.449028
760 1 0.500176 0.347856 0.448868
761 1 0.601988 0.294457 0.399573
762 1 0.652686 0.348642 0.399319
763 1 0.65275 0.295064 0.449044
764 1 0.601769 0.348362 0.449169
765 1 0.703839 0.295141 0.39897
766 1 0.756595 0.349306 0.398336
767 1 0.754265 0.294886 0.447374
768 1 0.704034 0.349006 0.447885
769 1 0.806791 0.294971 0.399584
770 1 0.849556 0.350658 0.40174
771 1 0.804165 0.348569 0.448709
772 1 0.198016 0.401715 0.400437
773 1 0.242333 0.456002 0.401329
774 1 0.244441 0.401577 0.448573
775 1 0.293773 0.401481 0.399604
776 1 0.346659 0.454894 0.400071
777 1 0.346535 0.40122 0.448259
778 1 0.29527 0.455478 0.448583
779 1 0.398059 0.401139 0.399524
780 1 0.44869 0.455201 0.399836
781 1 0.449154 0.401306 0.449009
782 1 0.397822 0.455029 0.448933
783 1 0.500082 0.401685 0.399674
784 1 0.551057 0.455447 0.399848
785 1 0.550892 0.401861 0.449259
786 1 0.499947 0.455253 0.449222
787 1 0.601788 0.401996 0.399762
788 1 0.652915 0.455703 0.399664
789 1 0.65309 0.402309 0.448659
790 1 0.602184 0.455531 0.449406
791 1 0.70455 0.402896 0.399099
792 1 0.756286 0.457536 0.399302
793 1 0.755889 0.403187 0.447149
794 1 0.704736 0.456504 0.448508
795 1 0.807325 0.40453 0.397416
796 1 0.851537 0.401195 0.450656
797 1 0.805964 0.455973 0.448044
798 1 0.250141 0.558609 0.401007
799 1 0.244314 0.509568 0.448544
800 1 0.296153 0.508441 0.400771
801 1 0.34541 0.563836 0.400098
802 1 0.346695 0.509985 0.449448
803 1 0.296125 0.563029 0.450028
804 1 0.397084 0.509231 0.400032
805 1 0.44784 0.562609 0.400777
806 1 0.448457 0.508443 0.449453
807 1 0.397199 0.562189 0.449826
808 1 0.499915 0.508743 0.400111
809 1 0.551531 0.562084 0.400101
810 1 0.55128 0.508899 0.449527
811 1 0.49932 0.561688 0.449674
812 1 0.602224 0.509002 0.399889
813 1 0.652861 0.562412 0.399873
814 1 0.653344 0.509339 0.449589
815 1 0.602835 0.562894 0.449837
816 1 0.70381 0.509422 0.399666
817 1 0.750265 0.561452 0.399781
818 1 0.756482 0.510308 0.44784
819 1 0.704257 0.562341 0.449632
820 1 0.348036 0.611314 0.450242
821 1 0.39636 0.616338 0.401556
822 1 0.449952 0.663849 0.399039
823 1 0.447557 0.616112 0.449943
824 1 0.499679 0.614574 0.400527
825 1 0.550246 0.664819 0.400311
826 1 0.550882 0.613928 0.450024
827 1 0.5003 0.664659 0.450185
828 1 0.603526 0.615682 0.400099
829 1 0.653522 0.615452 0.450089
830 1 0.59906 0.662474 0.449994
831 1 0.700935 0.611003 0.400057
832 1 0.448488 0.135639 0.49758
833 1 0.398684 0.137735 0.547905
834 1 0.551183 0.132524 0.498276
835 1 0.551056 0.0881258 0.552356
836 1 0.498527 0.132568 0.546873
837 1 0.654018 0.136791 0.498588
838 1 0.603113 0.133264 0.54709
839 1 0.703559 0.139167 0.54863
840 1 0.244634 0.241253 0.496602
841 1 0.247828 0.193592 0.546833
842 1 0.196967 0.242737 0.547159
843 1 0.29613 0.191008 0.498119
844 1 0.346902 0.240196 0.497559
845 1 0.346285 0.186071 0.546056
846 1 0.29671 0.241607 0.546836
847 1 0.397187 0.186557 0.497967
848 1 0.449144 0.240224 0.498036
849 1 0.449065 0.18697 0.547005
850 1 0.397791 0.240112 0.546961
851 1 0.500522 0.185599 0.498345
852 1 0.551051 0.24013 0.498486
853 1 0.550757 0.185323 0.547408
854 1 0.500179 0.240462 0.547409
855 1 0.60164 0.186329 0.498792
856 1 0.652635 0.240978 0.498731
857 1 0.652675 0.187851 0.547831
858 1 0.601417 0.240803 0.548165
859 1 0.704627 0.188332 0.498645
860 1 0.755539 0.241229 0.497789
861 1 0.754741 0.188097 0.547057
862 1 0.703842 0.241098 0.547585
863 1 0.848406 0.247345 0.497147
864 1 0.805005 0.239961 0.546372
865 1 0.147688 0.295152 0.546714
866 1 0.10103 0.34748 0.549522
867 1 0.196493 0.294712 0.497533
868 1 0.245609 0.347508 0.497352
869 1 0.245893 0.293758 0.546425
870 1 0.194144 0.348051 0.544021