ITEM: TIMESTEP
1100
ITEM: NUMBER OF ATOMS
1875
ITEM: BOX BOUNDS xy xz yz pp pp pp
3.9183646509999998e-01 4.0408163534899998e+01 0.0000000000000000e+00
9.9463713470000004e-01 3.9805362865299998e+01 0.0000000000000000e+00
3.5872793130000002e-01 4.0441272068700002e+01 0.0000000000000000e+00
ITEM: ATOMS id type xs ys zs
15 1 0.296561 0.0834052 0.00104629
256 1 0.298698 0.0872412 0.102218
1 1 0.346919 0.0328557 0.00152264
5 1 0.396543 0.032067 0.0530353
17 1 0.346265 0.0842222 0.0512902
19 1 0.398452 0.0830175 0.0021288
246 1 0.349284 0.0387467 0.102793
260 1 0.398358 0.0858593 0.101467
3 1 0.449276 0.0289458 0.00154295
7 1 0.551698 0.028351 0.00178557
9 1 0.500367 0.0300116 0.0517785
21 1 0.449316 0.0821063 0.051927
23 1 0.500447 0.081937 0.000905208
25 1 0.551456 0.0824901 0.0512159
247 1 0.447733 0.0321083 0.105063
250 1 0.551148 0.0324728 0.103556
264 1 0.49999 0.0831128 0.101738
12 1 0.603235 0.0316223 0.0509096
27 1 0.602259 0.0828029 0.000993563
29 1 0.654699 0.082964 0.0514104
253 1 0.651087 0.0350185 0.101815
268 1 0.602369 0.0840368 0.101654
11 1 0.655226 0.033037 0.000957092
31 1 0.705019 0.0830216 0.00151183
33 1 0.751232 0.0887428 0.0523391
272 1 0.702744 0.0850969 0.101681
39 1 0.0497133 0.191874 0.0508712
41 1 0.0983952 0.185839 0.00211226
37 1 0.000188879 0.188326 0.00364197
14 1 0.199681 0.140173 0.0527702
43 1 0.14751 0.187613 0.0523625
45 1 0.19609 0.186117 0.00193995
278 1 0.196849 0.188711 0.102787
13 1 0.245748 0.134128 0.00173115
18 1 0.295024 0.135178 0.0514363
47 1 0.24706 0.189188 0.0523207
49 1 0.296501 0.187786 0.00142503
255 1 0.247606 0.137653 0.102183
282 1 0.296337 0.188452 0.103053
16 1 0.347065 0.135727 0.0015419
22 1 0.398497 0.136645 0.0509759
51 1 0.346798 0.188493 0.0516993
53 1 0.398381 0.189006 0.000888353
257 1 0.347012 0.136585 0.101958
286 1 0.398107 0.189124 0.101744
20 1 0.449617 0.135816 0.0013734
24 1 0.551196 0.135392 0.000706861
26 1 0.500502 0.135657 0.0510449
55 1 0.449394 0.189332 0.0507486
57 1 0.500479 0.188949 0.000831944
59 1 0.551329 0.188936 0.0506194
261 1 0.449771 0.137133 0.101096
265 1 0.551375 0.13622 0.100981
290 1 0.500685 0.189258 0.101329
28 1 0.653104 0.135276 0.000871699
30 1 0.602765 0.135596 0.0510749
61 1 0.602017 0.188692 0.000800907
63 1 0.652489 0.188965 0.0514961
269 1 0.65331 0.135551 0.102478
294 1 0.602137 0.188638 0.101481
32 1 0.754668 0.134515 0.00084585
34 1 0.703025 0.136674 0.0516341
65 1 0.703498 0.18835 0.000899654
67 1 0.753576 0.187623 0.0524777
273 1 0.753298 0.135743 0.103107
298 1 0.703378 0.187872 0.102916
35 1 0.851356 0.138367 0.00140719
36 1 0.802352 0.136709 0.0517307
69 1 0.802987 0.188284 0.00232493
71 1 0.854176 0.185956 0.0532968
302 1 0.804903 0.186327 0.102835
73 1 0.903204 0.185435 0.00298411
75 1 0.950478 0.190669 0.0532609
306 1 0.901554 0.192141 0.10325
38 1 0.0494218 0.239802 0.0017875
44 1 0.0987549 0.239601 0.0536121
77 1 0.000130031 0.293166 0.00196328
79 1 0.0489661 0.293471 0.0529503
81 1 0.0982519 0.293704 0.00212563
275 1 0.0492408 0.241562 0.102572
309 1 0.000556519 0.29358 0.104642
313 1 0.0981524 0.295067 0.102605
40 1 5.49722e-05 0.239989 0.0537534
42 1 0.146953 0.23949 0.00229486
48 1 0.195995 0.239926 0.0525404
83 1 0.147315 0.293852 0.0527211
85 1 0.196878 0.29418 0.00185201
276 1 0.146746 0.239233 0.103836
317 1 0.194777 0.293549 0.104018
46 1 0.246312 0.240665 0.00147116
52 1 0.296757 0.242015 0.0523935
87 1 0.245693 0.294215 0.0525051
89 1 0.2969 0.294549 0.00154685
279 1 0.245222 0.241209 0.103746
321 1 0.29622 0.29474 0.102535
50 1 0.347369 0.241437 0.00132266
56 1 0.398049 0.241909 0.0514067
91 1 0.347359 0.294679 0.0517123
93 1 0.398181 0.294993 0.00108519
283 1 0.347528 0.241617 0.102121
325 1 0.398223 0.294819 0.101892
54 1 0.449106 0.242184 0.000944247
58 1 0.551045 0.242189 0.00076887
60 1 0.500265 0.242143 0.0511689
95 1 0.44919 0.294771 0.0511997
97 1 0.500085 0.295243 0.000797291
99 1 0.551057 0.294893 0.0513267
287 1 0.449167 0.241526 0.101582
291 1 0.551454 0.241774 0.101481
329 1 0.499882 0.294627 0.101557
62 1 0.652698 0.2419 0.00103942
64 1 0.601914 0.241906 0.0512846
101 1 0.601972 0.29507 0.00103298
103 1 0.652529 0.294759 0.0517168
295 1 0.652643 0.241553 0.102248
333 1 0.601927 0.294884 0.101552
66 1 0.753064 0.241601 0.00163821
68 1 0.703081 0.241444 0.0518939
105 1 0.702886 0.295093 0.001184
107 1 0.753502 0.295108 0.0519947
299 1 0.753673 0.241076 0.102259
337 1 0.703182 0.295114 0.10205
70 1 0.853487 0.239697 0.00249622
72 1 0.80388 0.240334 0.0526652
109 1 0.803459 0.294564 0.00210228
111 1 0.85332 0.294738 0.0525508
303 1 0.852846 0.241827 0.102938
341 1 0.803219 0.295395 0.102718
74 1 0.951154 0.239763 0.0021959
76 1 0.902327 0.240769 0.0531506
113 1 0.902506 0.29417 0.00172401
115 1 0.951625 0.293441 0.0535979
307 1 0.952201 0.240962 0.104736
345 1 0.903645 0.294177 0.10411
78 1 0.0486036 0.347776 0.00179508
80 1 0.00015003 0.347709 0.0533603
84 1 0.0976334 0.348215 0.052367
117 1 0.000410289 0.401995 0.00193892
119 1 0.0483835 0.402389 0.0536623
121 1 0.0973261 0.402072 0.00212022
310 1 0.0487423 0.348188 0.103778
349 1 0.000370714 0.402537 0.105546
352 1 0.097327 0.401982 0.10421
82 1 0.147291 0.34812 0.00173213
88 1 0.196004 0.34778 0.0529987
123 1 0.146354 0.40176 0.0528825
125 1 0.196851 0.401166 0.0017706
314 1 0.145942 0.348173 0.104728
356 1 0.195242 0.401084 0.103773
86 1 0.246726 0.34775 0.00183177
92 1 0.296654 0.347534 0.0521959
127 1 0.24634 0.400961 0.0525284
129 1 0.297036 0.400716 0.00172786
318 1 0.245522 0.347401 0.103082
360 1 0.296524 0.400677 0.102616
90 1 0.347661 0.348169 0.00143917
96 1 0.39822 0.348044 0.0514592
131 1 0.347186 0.401209 0.0515614
133 1 0.398542 0.401342 0.00117941
322 1 0.34744 0.347804 0.102029
364 1 0.398116 0.401196 0.101573
94 1 0.449083 0.348132 0.00112314
98 1 0.550717 0.348165 0.000813481
100 1 0.499892 0.347882 0.051224
135 1 0.449225 0.401441 0.0514875
137 1 0.499796 0.401117 0.000934085
139 1 0.550663 0.401047 0.0512803
326 1 0.449136 0.347786 0.101367
330 1 0.550968 0.347753 0.101349
368 1 0.500033 0.401291 0.101329
102 1 0.65246 0.347861 0.00110852
104 1 0.60173 0.348395 0.0515176
141 1 0.601564 0.401277 0.00119142
143 1 0.652413 0.401506 0.0515064
334 1 0.652436 0.348236 0.101909
372 1 0.601532 0.401541 0.101589
106 1 0.753181 0.348742 0.00151361
108 1 0.702922 0.348475 0.0517283
145 1 0.702817 0.40182 0.00119877
147 1 0.753177 0.401948 0.0520275
338 1 0.753279 0.348721 0.102583
376 1 0.703175 0.401677 0.10246
110 1 0.853362 0.348375 0.00184857
112 1 0.803707 0.348779 0.0523687
149 1 0.803634 0.401859 0.00183975
151 1 0.854101 0.402393 0.0530939
342 1 0.854428 0.348537 0.103668
380 1 0.803531 0.402024 0.10267
114 1 0.951686 0.347702 0.00184756
116 1 0.903087 0.348211 0.0528577
153 1 0.903195 0.402028 0.00215764
155 1 0.95205 0.402556 0.0540581
346 1 0.952447 0.348151 0.104582
384 1 0.903829 0.402477 0.104683
118 1 0.0484551 0.456999 0.00238407
120 1 0.000277655 0.456 0.0533523
124 1 0.0963948 0.456679 0.0540653
159 1 0.0482701 0.511043 0.0539247
160 1 0.0979176 0.510111 0.00271371
350 1 0.0478083 0.455724 0.105765
388 1 0.000267057 0.505217 0.10052
389 1 0.0967038 0.508423 0.104021
122 1 0.146787 0.455098 0.0023431
128 1 0.196862 0.45429 0.0523771
162 1 0.14707 0.508281 0.0530015
164 1 0.196744 0.508325 0.00235667
353 1 0.146163 0.45524 0.104043
392 1 0.196705 0.507158 0.103012
126 1 0.246785 0.454391 0.00168163
132 1 0.296906 0.454369 0.0518371
166 1 0.246106 0.50831 0.0518957
168 1 0.29646 0.50787 0.00138598
357 1 0.246601 0.453917 0.102789
396 1 0.295889 0.507596 0.102326
130 1 0.347517 0.454305 0.00112456
136 1 0.398178 0.454345 0.0516527
170 1 0.347178 0.507199 0.0515691
172 1 0.398224 0.507234 0.00113002
361 1 0.347035 0.454387 0.10201
400 1 0.398105 0.507346 0.10188
134 1 0.449334 0.454647 0.00114023
138 1 0.550887 0.454161 0.000887809
140 1 0.50029 0.454618 0.0510013
174 1 0.449032 0.507569 0.0513844
176 1 0.500264 0.507671 0.000990903
178 1 0.550735 0.507831 0.0514023
365 1 0.449114 0.454279 0.101472
369 1 0.550738 0.454497 0.101628
404 1 0.499898 0.50762 0.101657
142 1 0.652223 0.454639 0.00108448
144 1 0.601526 0.454535 0.0513722
180 1 0.601354 0.507818 0.00101144
182 1 0.652127 0.508005 0.051705
373 1 0.652381 0.454841 0.101952
408 1 0.601645 0.508044 0.101593
146 1 0.753196 0.455141 0.00153615
148 1 0.702563 0.454792 0.0516978
184 1 0.702676 0.508214 0.00122187
186 1 0.752867 0.507654 0.0519072
377 1 0.753371 0.455365 0.102841
412 1 0.70278 0.507944 0.102464
150 1 0.853514 0.455395 0.00222079
152 1 0.803667 0.455153 0.0525422
188 1 0.80361 0.508598 0.0014538
190 1 0.853679 0.508722 0.0528431
381 1 0.854239 0.455958 0.103664
416 1 0.803908 0.508507 0.103496
157 1 0.999298 0.511096 0.00325459
154 1 0.95162 0.456424 0.00249963
156 1 0.903804 0.4567 0.0540148
192 1 0.902932 0.509446 0.00239685
194 1 0.952065 0.510808 0.0539089
385 1 0.952837 0.456331 0.10602
420 1 0.90352 0.508601 0.103887
158 1 0.0481138 0.562307 0.00347997
163 1 0.0995745 0.560368 0.0524673
161 1 0.148921 0.562575 0.00306882
167 1 0.196223 0.561913 0.05334
390 1 0.148013 0.556967 0.102678
165 1 0.245051 0.562699 0.00209461
171 1 0.296103 0.560178 0.0518288
197 1 0.250541 0.661981 0.0019442
198 1 0.246708 0.612707 0.0516715
199 1 0.29716 0.612296 0.00184563
202 1 0.296317 0.664297 0.0530253
393 1 0.244668 0.561448 0.102638
422 1 0.295541 0.612582 0.101903
169 1 0.347721 0.560141 0.00136347
175 1 0.398209 0.560299 0.0518398
200 1 0.347075 0.663991 0.00139185
201 1 0.347072 0.613263 0.0527049
203 1 0.398359 0.612695 0.00118742
206 1 0.397224 0.665418 0.0520869
397 1 0.346892 0.560026 0.101822
423 1 0.34598 0.665728 0.103562
426 1 0.397908 0.613644 0.102722
173 1 0.449207 0.560157 0.00106839
177 1 0.550905 0.560861 0.00103492
179 1 0.499872 0.560823 0.0514815
204 1 0.448161 0.666105 0.00100909
205 1 0.448882 0.613321 0.0516595
207 1 0.500003 0.613587 0.000821997
209 1 0.550872 0.61402 0.051153
210 1 0.499747 0.666076 0.0507956
401 1 0.449151 0.560805 0.102069
405 1 0.550713 0.561414 0.101705
427 1 0.448004 0.665751 0.102491
430 1 0.499798 0.61397 0.101863
431 1 0.551303 0.66638 0.102418
181 1 0.652199 0.560999 0.00118925
183 1 0.601805 0.561061 0.0515112
211 1 0.602185 0.614397 0.00126639
213 1 0.652801 0.614259 0.0516143
409 1 0.652786 0.561512 0.102017
434 1 0.601796 0.614067 0.101866
435 1 0.653599 0.666209 0.100723
185 1 0.753639 0.562182 0.00226055
187 1 0.703287 0.561558 0.0519751
215 1 0.702894 0.613973 0.00199749
216 1 0.752426 0.662826 0.000516117
217 1 0.754653 0.615722 0.0530291
218 1 0.702907 0.665907 0.0510749
413 1 0.752987 0.5607 0.102638
438 1 0.7045 0.61473 0.101546
189 1 0.854048 0.562888 0.00202141
191 1 0.802683 0.56017 0.052394
219 1 0.803936 0.615084 0.00298308
220 1 0.850692 0.60823 0.05343
417 1 0.853387 0.559874 0.103397
441 1 0.802605 0.609211 0.102683
193 1 0.949897 0.562602 0.00163812
195 1 0.901609 0.560492 0.0528624
221 1 0.298696 0.711588 0.002315
222 1 0.346943 0.714744 0.0515276
223 1 0.395374 0.717682 0.00136106
226 1 0.397457 0.764169 0.0525913
442 1 0.396509 0.71553 0.102601
208 1 0.551057 0.667506 0.000977968
224 1 0.445459 0.7712 0.00161377
225 1 0.447968 0.717402 0.0515441
227 1 0.498995 0.720364 0.000392913
228 1 0.551755 0.772541 0.00260107
229 1 0.551541 0.718323 0.0515974
230 1 0.499669 0.767679 0.0534288
443 1 0.446991 0.764347 0.104822
445 1 0.499729 0.716128 0.102983
446 1 0.550519 0.766241 0.104765
214 1 0.601949 0.666912 0.0515529
212 1 0.653997 0.667832 0.00198599
231 1 0.603459 0.721309 0.00183763
232 1 0.650312 0.71712 0.0525742
233 1 0.599858 0.768464 0.0551113
449 1 0.602691 0.717629 0.103882
234 1 0.444223 0.862453 0.0082859
235 1 0.446037 0.813479 0.0565636
236 1 0.500992 0.821647 0.0076931
238 1 0.549172 0.820397 0.0596924
239 1 0.490988 0.864596 0.0641895
451 1 0.497787 0.811806 0.105994
237 1 0.565857 0.858522 0.00625902
240 1 0.61035 0.808466 0.00121545
2 1 0.39638 0.982648 0.00210814
4 1 0.44659 0.983744 0.0553407
6 1 0.502312 0.97542 0.00341618
8 1 0.552277 0.977354 0.0559025
241 1 0.446399 0.933617 0.00779374
242 1 0.505855 0.896286 0.00569174
244 1 0.55064 0.896532 0.0619426
245 1 0.494572 0.934723 0.0609042
249 1 0.50048 0.985802 0.104576
243 1 0.564714 0.93163 0.00513262
252 1 0.601345 0.987935 0.102004
10 1 0.607312 0.982684 0.00110243
248 1 0.397903 0.0373065 0.15182
258 1 0.346734 0.0858105 0.15291
456 1 0.397499 0.0851129 0.202726
251 1 0.500163 0.0336537 0.154157
262 1 0.449316 0.0859685 0.151746
266 1 0.551408 0.0852816 0.151951
452 1 0.448255 0.0379761 0.199361
453 1 0.551614 0.0373218 0.199954
460 1 0.500179 0.0835463 0.204098
254 1 0.601926 0.0347515 0.152122
270 1 0.652925 0.084021 0.152246
464 1 0.602841 0.0842075 0.202377
259 1 0.296341 0.136185 0.152923
280 1 0.245427 0.187957 0.152481
472 1 0.295464 0.188083 0.201559
263 1 0.397341 0.136218 0.152574
284 1 0.346793 0.188107 0.152825
454 1 0.346244 0.135393 0.203784
476 1 0.398024 0.187553 0.202947
267 1 0.500559 0.136523 0.152214
288 1 0.448877 0.188475 0.15174
292 1 0.551667 0.188244 0.152012
457 1 0.448442 0.1358 0.202838
461 1 0.552208 0.135251 0.20281
480 1 0.500277 0.188622 0.201883
271 1 0.603375 0.135757 0.152643
296 1 0.653245 0.187535 0.153058
465 1 0.65448 0.134059 0.203703
484 1 0.602644 0.18696 0.203109
274 1 0.704112 0.134567 0.153482
300 1 0.754689 0.188032 0.152092
467 1 0.752028 0.141933 0.202625
488 1 0.703267 0.189192 0.202567
304 1 0.852419 0.192445 0.152367
492 1 0.803259 0.190578 0.202054
277 1 0.0972485 0.24609 0.149251
311 1 0.0491638 0.295333 0.151375
281 1 0.194652 0.240522 0.154107
315 1 0.145455 0.293895 0.155082
496 1 0.194412 0.293712 0.204319
285 1 0.296201 0.241253 0.15209
319 1 0.244631 0.294215 0.153678
469 1 0.245601 0.240569 0.201497
500 1 0.296501 0.29444 0.201755
289 1 0.398275 0.241409 0.152453
323 1 0.347591 0.294813 0.151842
473 1 0.347071 0.24152 0.201724
504 1 0.398133 0.294515 0.202154
293 1 0.50023 0.241285 0.151486
327 1 0.448959 0.294461 0.151818
331 1 0.551096 0.294179 0.151451
477 1 0.449344 0.240863 0.201934
481 1 0.551393 0.240733 0.202059
508 1 0.500131 0.293983 0.201665
297 1 0.602068 0.241122 0.152225
335 1 0.652633 0.294732 0.152178
485 1 0.652414 0.241424 0.202294
512 1 0.601703 0.294651 0.201876
301 1 0.703633 0.241765 0.152406
339 1 0.753514 0.295134 0.152706
489 1 0.754062 0.240992 0.203521
516 1 0.70356 0.294818 0.202824
305 1 0.803313 0.241867 0.152852
343 1 0.853644 0.294998 0.153308
493 1 0.853423 0.242127 0.202788
520 1 0.80433 0.294569 0.203231
308 1 0.902747 0.242201 0.153463
347 1 0.952183 0.295051 0.153937
524 1 0.901394 0.294746 0.20137
312 1 0.000631421 0.348006 0.153653
316 1 0.0962522 0.346741 0.155515
351 1 0.0499408 0.400212 0.152887
320 1 0.195073 0.347828 0.154156
354 1 0.143877 0.401044 0.156159
495 1 0.147195 0.346978 0.202584
526 1 0.193259 0.400748 0.205558
324 1 0.2961 0.347688 0.152671
358 1 0.245161 0.400895 0.153852
497 1 0.244466 0.347595 0.203481
530 1 0.296453 0.40067 0.202595
328 1 0.398354 0.347979 0.151854
362 1 0.34715 0.400864 0.152116
501 1 0.3472 0.347415 0.202295
534 1 0.398103 0.400826 0.201939
332 1 0.499782 0.347567 0.151249
366 1 0.448843 0.401092 0.151531
370 1 0.55066 0.401123 0.151538
505 1 0.44912 0.347614 0.201721
509 1 0.550579 0.347724 0.201345
538 1 0.499902 0.401112 0.201439
336 1 0.601732 0.348001 0.15176
374 1 0.652556 0.401422 0.152093
513 1 0.652562 0.348128 0.202166
542 1 0.601595 0.401253 0.201556
340 1 0.703073 0.34834 0.152586
378 1 0.753998 0.402046 0.153168
517 1 0.753854 0.348477 0.202901
546 1 0.703522 0.401767 0.202809
344 1 0.804195 0.348497 0.153666
382 1 0.853825 0.401966 0.153438
521 1 0.855757 0.348396 0.204784
550 1 0.805055 0.402525 0.203551
348 1 0.905096 0.348653 0.155203
386 1 0.952217 0.401435 0.154825
554 1 0.901727 0.402116 0.201574
355 1 0.0977644 0.454614 0.153172
359 1 0.195701 0.454128 0.1537
391 1 0.146568 0.507503 0.153288
525 1 0.147649 0.454971 0.20152
555 1 0.19515 0.507327 0.203261
363 1 0.296238 0.454014 0.15284
394 1 0.245461 0.5077 0.153653
527 1 0.244925 0.453987 0.203658
558 1 0.295962 0.507522 0.202568
367 1 0.397937 0.454367 0.151902
398 1 0.346897 0.507553 0.15213
531 1 0.347246 0.454117 0.202069
562 1 0.39746 0.507513 0.202073
371 1 0.499829 0.454239 0.15161
402 1 0.448932 0.50718 0.151675
406 1 0.550714 0.507982 0.151575
535 1 0.448632 0.454317 0.201689
539 1 0.550912 0.454707 0.201293
566 1 0.499989 0.507482 0.201465
375 1 0.601578 0.454674 0.151524
410 1 0.652281 0.508291 0.15248
543 1 0.652447 0.455018 0.202031
570 1 0.601518 0.508009 0.201964
379 1 0.703276 0.455216 0.15277
414 1 0.75404 0.508777 0.153545
547 1 0.754891 0.455596 0.203675
574 1 0.703695 0.508837 0.202496
383 1 0.804617 0.455984 0.153755
418 1 0.85388 0.508129 0.153428
551 1 0.854241 0.45509 0.203196
578 1 0.804727 0.508449 0.203146
387 1 0.903233 0.455199 0.154276
395 1 0.196828 0.558691 0.152217
399 1 0.295612 0.560191 0.152708
421 1 0.247646 0.609875 0.152715
425 1 0.297914 0.658861 0.152465
556 1 0.244829 0.560304 0.202689
579 1 0.295476 0.612122 0.202931
403 1 0.398137 0.55992 0.152114
424 1 0.347095 0.611558 0.152027
429 1 0.396075 0.666178 0.153698
559 1 0.346182 0.561042 0.202901
580 1 0.346359 0.661264 0.201301
582 1 0.397191 0.612911 0.202347
407 1 0.499794 0.561298 0.152122
428 1 0.448374 0.614169 0.153013
432 1 0.550637 0.613959 0.15299
433 1 0.499728 0.665446 0.153107
563 1 0.448937 0.560548 0.20191
567 1 0.550572 0.561015 0.202037
586 1 0.499458 0.614926 0.203418
411 1 0.6018 0.561185 0.152021
436 1 0.652521 0.614079 0.151898
437 1 0.60127 0.665585 0.153817
571 1 0.653168 0.56223 0.202844
590 1 0.602053 0.613464 0.202921
591 1 0.65217 0.663883 0.202119
415 1 0.703115 0.561815 0.152666
439 1 0.752648 0.611892 0.151744
440 1 0.701415 0.662661 0.15193
575 1 0.754181 0.56175 0.202179
594 1 0.703636 0.614049 0.202375
419 1 0.803569 0.560227 0.153035
583 1 0.447198 0.666564 0.204214
587 1 0.551423 0.666829 0.204545
444 1 0.447857 0.715126 0.153937
447 1 0.551478 0.716242 0.154256
448 1 0.499216 0.762589 0.153151
595 1 0.499442 0.713807 0.201561
450 1 0.65201 0.709774 0.151396
458 1 0.449593 0.0846789 0.251284
462 1 0.550953 0.0845079 0.251321
599 1 0.50008 0.0876255 0.29826
455 1 0.298249 0.1419 0.252408
470 1 0.248357 0.191192 0.252185
606 1 0.295876 0.188442 0.302688
459 1 0.397294 0.134009 0.25351
474 1 0.347325 0.189439 0.251845
596 1 0.347337 0.13922 0.300596
610 1 0.397866 0.187759 0.301937
463 1 0.500428 0.136378 0.251675
478 1 0.448493 0.18685 0.252947
482 1 0.551787 0.186636 0.252835
597 1 0.448026 0.133165 0.303039
600 1 0.552409 0.133004 0.303011
614 1 0.499806 0.18539 0.302701
466 1 0.603298 0.133353 0.253723
486 1 0.65278 0.187608 0.252522
602 1 0.653885 0.137212 0.302471
618 1 0.601839 0.186991 0.301879
468 1 0.703776 0.139565 0.251943
490 1 0.75509 0.188861 0.253297
622 1 0.704487 0.188365 0.301578
471 1 0.200748 0.242862 0.251613
627 1 0.199426 0.293153 0.2986
475 1 0.296068 0.241215 0.252336
498 1 0.24672 0.294627 0.251526
605 1 0.245707 0.240585 0.302627
630 1 0.294885 0.294115 0.302348
479 1 0.398421 0.241405 0.25169
502 1 0.347009 0.294169 0.252469
607 1 0.346565 0.240172 0.302377
634 1 0.398309 0.294022 0.301587
483 1 0.500358 0.239938 0.252054
506 1 0.449246 0.294078 0.251657
510 1 0.550842 0.294098 0.251388
611 1 0.449332 0.240386 0.301482
615 1 0.550465 0.240497 0.3015
638 1 0.499933 0.2941 0.301075
487 1 0.601809 0.240938 0.251974
514 1 0.652465 0.294747 0.251917
619 1 0.652839 0.241037 0.301263
642 1 0.601254 0.294319 0.301152
491 1 0.704 0.241134 0.252475
518 1 0.755202 0.294534 0.25337
623 1 0.755753 0.241308 0.301635
646 1 0.703937 0.295149 0.301539
494 1 0.805414 0.241679 0.252949
522 1 0.853712 0.295265 0.251458
650 1 0.807163 0.294236 0.302776
499 1 0.194302 0.346824 0.253014
653 1 0.196593 0.401906 0.300202
503 1 0.296057 0.347532 0.252622
528 1 0.245 0.400248 0.252485
628 1 0.243311 0.347109 0.302777
657 1 0.295746 0.400342 0.302101
507 1 0.397826 0.347606 0.251807
532 1 0.34712 0.401027 0.252165
631 1 0.346946 0.347068 0.301921
661 1 0.397927 0.400933 0.301434
511 1 0.50002 0.347663 0.251122
536 1 0.448867 0.401193 0.251414
540 1 0.550683 0.401206 0.251157
635 1 0.448953 0.34746 0.301138
639 1 0.550588 0.347816 0.301127
665 1 0.499748 0.400932 0.300983
515 1 0.601458 0.348015 0.251356
544 1 0.652467 0.401437 0.251589
643 1 0.652234 0.347989 0.301497
669 1 0.601441 0.401488 0.301273
519 1 0.703836 0.348515 0.252674
548 1 0.755668 0.402307 0.253226
647 1 0.756218 0.348696 0.302314
673 1 0.703601 0.401532 0.301655
523 1 0.804368 0.348419 0.252031
552 1 0.854272 0.401551 0.251767
651 1 0.852006 0.348361 0.298013
677 1 0.807386 0.40316 0.302709
529 1 0.19428 0.454373 0.253058
679 1 0.199615 0.504197 0.301619
533 1 0.296456 0.454371 0.252046
557 1 0.244989 0.507788 0.251813
654 1 0.246271 0.453758 0.300881
682 1 0.295229 0.507879 0.302785
537 1 0.397695 0.45442 0.252215
560 1 0.346415 0.507734 0.252213
658 1 0.346295 0.454294 0.302107
686 1 0.397532 0.508025 0.301877
541 1 0.499807 0.454437 0.251133
564 1 0.448355 0.507601 0.251548
568 1 0.550829 0.508091 0.2515
662 1 0.448699 0.454458 0.301309
666 1 0.550327 0.454471 0.301038
690 1 0.49963 0.507611 0.301243
545 1 0.601476 0.454697 0.251471
572 1 0.652996 0.508545 0.25167
670 1 0.652676 0.454906 0.301216
694 1 0.601352 0.507987 0.301259
549 1 0.70352 0.455344 0.25191
576 1 0.754764 0.509655 0.25145
674 1 0.754014 0.455421 0.301322
698 1 0.70428 0.508931 0.30127
553 1 0.806238 0.455942 0.253308
702 1 0.799902 0.506578 0.301016
561 1 0.294811 0.560523 0.252134
680 1 0.246731 0.557168 0.302261
703 1 0.297197 0.607888 0.301612
565 1 0.397102 0.561079 0.251854
581 1 0.345221 0.614142 0.252922
585 1 0.397045 0.662832 0.251186
683 1 0.346501 0.560284 0.301899
705 1 0.396083 0.614146 0.300837
569 1 0.499618 0.560487 0.251773
584 1 0.448355 0.613761 0.252147
588 1 0.550627 0.614184 0.252326
687 1 0.448121 0.560788 0.301313
691 1 0.550856 0.561377 0.301295
706 1 0.44799 0.66458 0.301325
709 1 0.49932 0.614378 0.300957
710 1 0.550806 0.665111 0.301453
573 1 0.60215 0.561505 0.251953
592 1 0.654148 0.615512 0.253015
593 1 0.601589 0.664118 0.251451
695 1 0.652597 0.561462 0.301268
713 1 0.603042 0.614985 0.301095
577 1 0.704584 0.562508 0.251814
699 1 0.752362 0.559547 0.302017
716 1 0.702122 0.609761 0.302168
589 1 0.499347 0.666913 0.253229
725 1 0.297191 0.19218 0.400432
598 1 0.39781 0.137861 0.35046
608 1 0.345654 0.186229 0.352117
729 1 0.396622 0.186506 0.40011
601 1 0.500134 0.132737 0.351798
612 1 0.449225 0.186319 0.351202
616 1 0.550831 0.186015 0.351202
717 1 0.448309 0.135542 0.399925
719 1 0.551185 0.13507 0.400818
733 1 0.499895 0.185557 0.40022
603 1 0.603038 0.135997 0.351572
620 1 0.652373 0.18884 0.351057
721 1 0.653025 0.137568 0.400592
737 1 0.601539 0.187217 0.400462
604 1 0.702107 0.141308 0.35159
624 1 0.752917 0.191429 0.350617
741 1 0.704413 0.189344 0.400058
609 1 0.29549 0.240614 0.350849
629 1 0.243783 0.293462 0.35127
724 1 0.248699 0.24287 0.399617
749 1 0.295487 0.294076 0.399705
613 1 0.397658 0.239699 0.350965
632 1 0.346794 0.294074 0.350888
726 1 0.34676 0.240603 0.40024
753 1 0.398049 0.293842 0.399987
617 1 0.499941 0.240078 0.350718
636 1 0.448913 0.293782 0.350859
640 1 0.550481 0.294231 0.350757
730 1 0.448484 0.239668 0.400082
734 1 0.550436 0.240062 0.399952
757 1 0.499355 0.293827 0.400354
621 1 0.601207 0.240987 0.350979
644 1 0.652264 0.294746 0.350514
738 1 0.652724 0.24147 0.400255
761 1 0.601537 0.294274 0.400535
625 1 0.704101 0.24192 0.350487
648 1 0.755661 0.295708 0.35089
742 1 0.755272 0.241452 0.399852
765 1 0.703891 0.294849 0.399342
626 1 0.80178 0.243886 0.351201
769 1 0.806899 0.295157 0.399931
772 1 0.198273 0.400978 0.400125
633 1 0.29485 0.347024 0.351098
655 1 0.243886 0.400287 0.350591
746 1 0.242321 0.346634 0.398462
775 1 0.294093 0.400726 0.399745
637 1 0.397835 0.347607 0.351086
659 1 0.346376 0.400765 0.351187
750 1 0.34671 0.347311 0.399994
779 1 0.397783 0.401178 0.400282
641 1 0.499651 0.347565 0.350626
663 1 0.44883 0.40094 0.350775
667 1 0.550415 0.401309 0.350732
754 1 0.44897 0.347563 0.400192
758 1 0.55035 0.347635 0.400255
783 1 0.499568 0.401119 0.400193
645 1 0.6012 0.347865 0.350571
671 1 0.65274 0.401485 0.350742
762 1 0.652517 0.348141 0.399983
787 1 0.601431 0.401319 0.400036
649 1 0.704085 0.348676 0.350777
675 1 0.756028 0.40224 0.350537
766 1 0.756816 0.348951 0.399018
791 1 0.70473 0.402305 0.399506
652 1 0.807799 0.348648 0.35017
770 1 0.84981 0.350701 0.402457
795 1 0.807709 0.404423 0.398136
656 1 0.198024 0.452466 0.34908
660 1 0.29415 0.454286 0.352179
681 1 0.243819 0.507646 0.352805
773 1 0.242404 0.455326 0.401431
800 1 0.295616 0.507584 0.40096
664 1 0.397467 0.454481 0.351004
684 1 0.346072 0.508339 0.351476
776 1 0.346617 0.454488 0.400504
804 1 0.397127 0.508722 0.400277
668 1 0.499655 0.454596 0.350806
688 1 0.448295 0.508033 0.351075
692 1 0.550762 0.508216 0.350938
780 1 0.448778 0.454865 0.400386
784 1 0.55065 0.454853 0.400458
808 1 0.499796 0.508124 0.400383
672 1 0.60163 0.45483 0.350769
696 1 0.652767 0.508419 0.350604
788 1 0.652684 0.45493 0.399917
812 1 0.601622 0.508388 0.400476
676 1 0.704347 0.45568 0.350966
700 1 0.755627 0.509949 0.35195
792 1 0.756218 0.456697 0.399568
816 1 0.703383 0.50854 0.40018
678 1 0.802934 0.456033 0.349248
685 1 0.294992 0.561648 0.352097
798 1 0.248843 0.556772 0.40112
689 1 0.396592 0.562329 0.351797
704 1 0.346844 0.613239 0.35023
708 1 0.399531 0.660596 0.350029
801 1 0.345065 0.56261 0.40043
821 1 0.396342 0.615413 0.401486
693 1 0.499741 0.560846 0.350999
707 1 0.44884 0.613126 0.350423
711 1 0.55029 0.613891 0.350467
712 1 0.499641 0.665217 0.350036
805 1 0.447855 0.562044 0.400565
809 1 0.551094 0.561787 0.400339
822 1 0.449802 0.663115 0.398424
824 1 0.499399 0.614239 0.400076
825 1 0.549873 0.664691 0.399935
697 1 0.602235 0.562329 0.350765
714 1 0.65297 0.615115 0.350835
715 1 0.598913 0.662314 0.350784
813 1 0.652191 0.561772 0.400596
828 1 0.60299 0.615083 0.400457
701 1 0.703545 0.561876 0.350848
817 1 0.750017 0.560643 0.400101
831 1 0.700705 0.610163 0.400696
835 1 0.550909 0.0889711 0.551683
841 1 0.2472 0.194291 0.54698
843 1 0.295597 0.191498 0.498431
718 1 0.399694 0.138805 0.448963
727 1 0.345957 0.186572 0.449262
833 1 0.39782 0.137986 0.548881
845 1 0.345276 0.186149 0.546416
847 1 0.396406 0.186369 0.49844
720 1 0.498649 0.134898 0.449439
731 1 0.449089 0.18688 0.449298
735 1 0.550394 0.18608 0.449866
832 1 0.447852 0.135878 0.498569
834 1 0.55059 0.133194 0.497856
836 1 0.498259 0.133276 0.547319
849 1 0.448253 0.187006 0.547852
851 1 0.499629 0.185864 0.498872
853 1 0.5506 0.185107 0.547697
722 1 0.602424 0.136157 0.449574
739 1 0.652274 0.188867 0.449786
837 1 0.653792 0.137286 0.498136
838 1 0.603257 0.133409 0.546978
855 1 0.601465 0.186586 0.498927
857 1 0.652721 0.187855 0.547777
723 1 0.702102 0.141338 0.448854
743 1 0.75347 0.191094 0.449304
839 1 0.703459 0.139076 0.548952
859 1 0.704875 0.188237 0.498813
861 1 0.754761 0.18805 0.547139
842 1 0.196458 0.242898 0.547195
865 1 0.147311 0.294697 0.547315
867 1 0.196141 0.29497 0.497786
728 1 0.295319 0.240815 0.449118
747 1 0.243173 0.294274 0.447141
840 1 0.244608 0.241818 0.496499
846 1 0.296428 0.24197 0.547445
869 1 0.245501 0.29393 0.546704
871 1 0.29511 0.293935 0.496899
732 1 0.397437 0.239167 0.449254
751 1 0.3466 0.294073 0.449093
844 1 0.346699 0.240445 0.497974
850 1 0.39713 0.239929 0.547777
873 1 0.346902 0.294412 0.547585
875 1 0.3979 0.293766 0.498705
736 1 0.499858 0.239894 0.449426
755 1 0.448822 0.293483 0.449526
759 1 0.550296 0.293927 0.449711
848 1 0.448464 0.239859 0.498989
852 1 0.550352 0.240125 0.499233
854 1 0.499705 0.240342 0.548351
877 1 0.448533 0.294173 0.548588
879 1 0.499507 0.293698 0.499316
881 1 0.550675 0.294657 0.548391
740 1 0.601117 0.240701 0.449814
763 1 0.652708 0.294875 0.44931
856 1 0.65289 0.241215 0.498796
858 1 0.601117 0.240913 0.547872
883 1 0.601389 0.294473 0.498937
885 1 0.652469 0.294837 0.547905
744 1 0.704095 0.241646 0.449632
767 1 0.754559 0.295126 0.44781
860 1 0.756377 0.240866 0.498089
862 1 0.704251 0.241148 0.547189
887 1 0.704064 0.294786 0.498261
889 1 0.754671 0.294294 0.547213
745 1 0.803461 0.243703 0.44839
863 1 0.84748 0.245779 0.498293
864 1 0.80486 0.240491 0.547673
891 1 0.804574 0.296246 0.496606
893 1 0.855474 0.294479 0.545625
866 1 0.100932 0.347108 0.549765
748 1 0.196841 0.348914 0.450325
870 1 0.193706 0.348004 0.544515
896 1 0.146284 0.400312 0.54635
897 1 0.194455 0.401339 0.496524
752 1 0.294284 0.347264 0.447857
774 1 0.244217 0.401201 0.448824
868 1 0.244962 0.347303 0.497643
874 1 0.296285 0.347618 0.547402
899 1 0.244733 0.401525 0.545967
901 1 0.295441 0.401102 0.497812
756 1 0.397916 0.347327 0.44921
777 1 0.34635 0.400718 0.449057
872 1 0.346558 0.347429 0.497942
878 1 0.397514 0.347914 0.548201
903 1 0.346852 0.401189 0.547765
905 1 0.397691 0.401096 0.498491
760 1 0.499742 0.347589 0.449942
781 1 0.448617 0.40108 0.449555
785 1 0.55085 0.401419 0.449664
876 1 0.44865 0.34744 0.498974
880 1 0.550708 0.347852 0.499274
882 1 0.499542 0.347953 0.548623
907 1 0.44837 0.401291 0.548307
909 1 0.49931 0.401406 0.499189
911 1 0.550618 0.401027 0.548796
764 1 0.601453 0.348241 0.449562
789 1 0.652887 0.401799 0.44904
884 1 0.652728 0.348327 0.498487