LAMMPS data file via write_data, version 2 Aug 2023, timestep = 50075, units = metal

1875 atoms
1 atom types

0.3918364651 40.4081635349 xlo xhi
0.9946371347 39.8053628653 ylo yhi
0.3587279313 40.4412720687 zlo zhi
0.0 0.0 0.0 xy xz yz

Masses

1 196.97

Atoms # atomic

15 1 12.255521378493372 4.222475329371761 0.4062477863108639 0 0 0
256 1 12.34285431884796 4.411783391816805 4.45605470094558 0 0 0
1 1 14.257648336962637 2.2581601560072113 0.39868345354258433 0 0 0
5 1 16.21692761772555 2.2026079406602785 2.4856030978945536 0 0 0
17 1 14.247915310606725 4.277974902434614 2.3973148453739084 0 0 0
19 1 16.3380930616136 4.164734856486892 0.4386737397249532 0 0 0
246 1 14.39269939931123 2.5198177605963905 4.465218740028061 0 0 0
260 1 16.368843754360725 4.331202658317837 4.364290150084992 0 0 0
3 1 18.363417080008052 2.083122507886677 0.4169162950653987 0 0 0
7 1 22.494757642146602 2.0785226847784015 0.4157553978130106 0 0 0
9 1 20.41849089987387 2.1549831433389097 2.440659022434945 0 0 0
21 1 18.41077998475438 4.163169616794542 2.4025341551053954 0 0 0
23 1 20.41959996661717 4.136495253358252 0.3725102981875697 0 0 0
25 1 22.456601517466886 4.202124855498912 2.4087827582774275 0 0 0
247 1 18.351903854459966 2.2204831880213347 4.568395336624533 0 0 0
250 1 22.45388156599722 2.2551741123536915 4.475792126175869 0 0 0
264 1 20.415763275915175 4.234072109648857 4.426802203318928 0 0 0
12 1 24.551774477140288 2.248585430965675 2.381421991738321 0 0 0
27 1 24.518886497599517 4.20965841823356 0.3635087136383581 0 0 0
29 1 26.613516009638346 4.232396987812454 2.36706833278703 0 0 0
253 1 26.457686611948294 2.356551804928087 4.398830171123647 0 0 0
268 1 24.499532466966265 4.298432129017323 4.4074624680894186 0 0 0
11 1 26.61050772117093 2.2663184856866145 0.376397923761864 0 0 1
31 1 28.627432182339692 4.211746746462239 0.4001910482752482 0 0 0
33 1 30.459334095124852 4.448193943764277 2.437912642046644 0 0 0
272 1 28.516880371311586 4.307118204146445 4.373200127943472 0 0 0
39 1 2.402101155383523 8.442021326361422 2.4126248118348004 0 0 0
41 1 4.328176757444317 8.19761298827636 0.4093235750536108 0 0 0
37 1 0.4122969163172686 8.290724508255929 0.48138806865092926 1 0 0
14 1 8.312133265956279 6.45432954346547 2.493873466280932 0 0 0
43 1 6.28897448312825 8.286558115341087 2.420405708695079 0 0 0
45 1 8.237032193267122 8.208041254400221 0.42445645487288736 0 0 0
278 1 8.254003909022359 8.327882326162108 4.48071320000447 0 0 0
13 1 10.213184181177423 6.134136109109323 0.4589141529296928 0 0 0
18 1 12.176492213807869 6.260200836856049 2.4430688597748453 0 0 0
47 1 10.270867300860608 8.318330215533956 2.431939171224529 0 0 0
49 1 12.221661708394434 8.247282603150582 0.4075416876262413 0 0 0
255 1 10.259970210450685 6.332111160145669 4.432086741967963 0 0 0
282 1 12.252283998463446 8.264572717143013 4.486740931615531 0 0 0
16 1 14.263808554150145 6.273892436343695 0.4323656669375231 0 0 0
22 1 16.35622011404991 6.300172039930611 2.3509322247464683 0 0 0
51 1 14.264248718502653 8.327482418688303 2.40349147306597 0 0 0
53 1 16.341998005720786 8.334194106171426 40.433167350700856 0 0 -1
257 1 14.29223231061585 6.285961660076005 4.394262918685928 0 0 0
286 1 16.311105287072184 8.347964456143625 4.383408811963574 0 0 0
20 1 18.38873607554701 6.2355903618644595 0.37850927953045926 0 0 0
24 1 22.4415956666066 6.234544452872084 0.36564681624115564 0 0 0
26 1 20.431918288614103 6.259737806880961 2.370115214421309 0 0 0
55 1 18.377082157453792 8.371181163099536 2.3612632736525514 0 0 0
57 1 20.39130161118042 8.325407385074044 0.3869632119129667 0 0 0
59 1 22.42844152545812 8.315456118731607 2.3732828617773354 0 0 0
261 1 18.391595815816725 6.326536981155418 4.368027433367282 0 0 0
265 1 22.45263722956255 6.3167648662039495 4.392907397966909 0 0 0
290 1 20.403729848514555 8.32353220094491 4.405133749301603 0 0 0
28 1 26.53020746046252 6.279277872363821 0.37027435712296564 0 0 0
30 1 24.536906134310417 6.2685413552609806 2.3876620769883927 0 0 0
61 1 24.478883874818443 8.319038401464779 0.395715709368756 0 0 0
63 1 26.542312551616945 8.320652545181128 2.4320447705060815 0 0 0
269 1 26.551769389286463 6.255928430380219 4.443746235946645 0 0 0
294 1 24.511037179269064 8.309132462792508 4.428869232523831 0 0 0
32 1 30.662669052566606 6.239077584773731 0.40231527579536874 0 0 0
34 1 28.5366311034964 6.310978070713084 2.431552971493548 0 0 0
65 1 28.568473217782344 8.309849600319174 0.3886283112462912 0 0 0
67 1 30.564953364380766 8.291448623024323 2.4503405861230685 0 0 0
273 1 30.5685103177948 6.2540812502124545 4.473412904636596 0 0 0
298 1 28.55975047442814 8.323859501838848 4.4848670610685355 0 0 0
35 1 34.482607974906365 6.39970782553356 0.4223799456356864 0 0 0
36 1 32.53720731199393 6.304906582735596 2.4386778210700664 0 0 0
69 1 32.53992469268813 8.322100606518125 0.4344971420329751 0 0 0
71 1 34.605989893195655 8.258706672852348 2.502073921631039 0 0 0
302 1 32.617266311478495 8.259190446132983 4.471710128185458 0 0 0
73 1 36.53413007455248 8.210866099749506 0.48956613619714373 0 0 0
75 1 38.46244596144086 8.402396770575692 2.490154630177346 0 0 0
306 1 36.51221322850614 8.454317202710453 4.460971991000031 0 0 0
38 1 2.3846178957182222 10.295438537348474 0.40103786097027994 0 0 0
44 1 4.3453458695574465 10.300243503776466 2.4897100734944413 0 0 0
77 1 0.39692840790084144 12.373909653480975 0.418955127042585 0 0 0
79 1 2.3551430971036074 12.37222759004193 2.4362755273061145 0 0 0
81 1 4.343962741494047 12.408037444305531 0.40710501651964404 0 0 0
275 1 2.3814107137297085 10.394993228349339 4.482113581816913 0 0 0
309 1 0.43624293232562344 12.408217027397482 4.519551320234897 0 0 0
313 1 4.341468578375854 12.47163561129339 4.450580688631863 0 0 0
40 1 0.4261042307472734 10.313484997523792 2.4857760190206966 1 0 0
42 1 6.300636062548559 10.291074092033611 0.4096918664046533 0 0 0
48 1 8.228187571972262 10.32689431947592 2.487476930180223 0 0 0
83 1 6.313420840141542 12.394145644781192 2.455622735942681 0 0 0
85 1 8.29169651968147 12.396746057646377 0.40412383941779123 0 0 0
276 1 6.259323708686676 10.2940003338083 4.509387070734301 0 0 0
317 1 8.195198556534825 12.377006671690008 4.552839032337509 0 0 0
46 1 10.261903623528683 10.363982247707694 0.42607620026070325 0 0 0
52 1 12.262595129595386 10.35883726509531 2.4724845640131714 0 0 0
87 1 10.232349874101615 12.409322017308364 2.5056799365576747 0 0 0
89 1 12.283891313028423 12.39638460631523 0.43776235485537823 0 0 0
279 1 10.218045749387374 10.306242370863238 4.524578628261961 0 0 0
321 1 12.269170129448055 12.422840908931045 4.485462970294888 0 0 0
50 1 14.27357514193061 10.344851791404137 0.39370469032482186 0 0 0
56 1 16.34135565477018 10.385030323060022 2.3983507622809204 0 0 0
91 1 14.28237133878274 12.421229269707819 2.4578084615747797 0 0 0
93 1 16.309711061575204 12.415929819903921 0.38366742248408897 0 0 0
283 1 14.296002284228278 10.347878388110269 4.4451004232354805 0 0 0
325 1 16.3302757292481 12.435235946595773 4.461031768613598 0 0 0
54 1 18.361250068840302 10.39421031369371 0.3657833042258543 0 0 0
58 1 22.44575208630874 10.36763569551736 0.3868168582447724 0 0 0
60 1 20.40054938359359 10.39331945454969 2.403396733440632 0 0 0
95 1 18.34867351120772 12.454607657028323 2.402866493839817 0 0 0
97 1 20.41099093567387 12.450965677124286 0.39112596585669107 0 0 0
99 1 22.42222923244342 12.418951720589467 2.4089962559300644 0 0 0
287 1 18.363771067509255 10.399099869232996 4.428617999895217 0 0 0
291 1 22.451239863364513 10.360083058709051 4.428223643368871 0 0 0
329 1 20.394693124125222 12.445934612501537 4.435958987579774 0 0 0
62 1 26.49348904727429 10.375220118276026 0.40250353634366015 0 0 0
64 1 24.4654151729798 10.357592737754974 2.432150071864509 0 0 0
101 1 24.46160258056886 12.433903709349442 0.4081040389076816 0 0 0
103 1 26.48818090388168 12.445960714549596 2.4167758982135363 0 0 0
295 1 26.48041163324489 10.390215695740586 4.475168514729652 0 0 0
333 1 24.459724091139588 12.449420033923088 4.4318371159623595 0 0 0
66 1 30.5382460835468 10.379708864245845 0.44232527191801074 0 0 0
68 1 28.507145699464374 10.379798815894954 2.436347197761914 0 0 0
105 1 28.543799207973294 12.434124731816773 0.43625774568152287 0 0 0
107 1 30.553805578369406 12.461672326866237 2.483032273099987 0 0 0
299 1 30.555665547472866 10.37481309232262 4.47252398194796 0 0 0
337 1 28.527283121449294 12.466195883413315 4.422049001155916 0 0 0
70 1 34.5592673208264 10.328303094941806 0.47408784960749384 0 0 0
72 1 32.562330097594746 10.34012260558172 2.488895469387513 0 0 0
109 1 32.54861795451909 12.446198700873824 0.4830530372213768 0 0 0
111 1 34.55834365212968 12.461665181648014 2.471813526476029 0 0 0
303 1 34.549678521310696 10.401199484012793 4.455784683093244 0 0 0
341 1 32.53681954124394 12.464203302881101 4.473351997174022 0 0 0
74 1 38.4849678875048 10.2754041893726 0.428996374903302 0 0 0
76 1 36.532854139149386 10.353459651047542 2.4741422049059905 0 0 0
113 1 36.517947867226766 12.396394452592698 0.40706671640961756 0 0 0
115 1 38.48477391352599 12.409483734816828 2.495968013174694 0 0 0
307 1 38.537771144226575 10.37922776751468 4.537772741309864 0 0 0
345 1 36.59360819295784 12.422563788809073 4.538032230338358 0 0 0
78 1 2.3622377058377046 14.49366091167 0.37858256163222553 0 0 0
80 1 0.43862240213172826 14.485225225073176 2.4627358498287193 0 0 0
84 1 4.311770946149172 14.50239667056485 2.435060100423658 0 0 0
117 1 40.39757584072788 16.6164066602215 0.43290259968338596 -1 0 0
119 1 2.3411656252396793 16.608114208156824 2.5138428292667685 0 0 0
121 1 4.3001390143104485 16.591278504713998 0.43846206953923494 0 0 0
310 1 2.3445893852309916 14.511539432456583 4.5290152654245075 0 0 0
349 1 0.4294763330422286 16.626320801837668 4.561960070592938 0 0 0
352 1 4.2999760606405735 16.592532353501063 4.5151085135963145 0 0 0
82 1 6.3144028764299085 14.466984456623262 0.42017953402112684 0 0 0
88 1 8.262222346702169 14.482769288778382 2.4886495192792446 0 0 0
123 1 6.292149013393482 16.57688700105275 2.4483053895304985 0 0 0
125 1 8.284077735430593 16.538307777157943 0.43080376181624147 0 0 0
314 1 6.257254976892721 14.517576912817873 4.518335459962776 0 0 0
356 1 8.235621577351235 16.57886356565382 4.522913150591164 0 0 0
86 1 10.297566622117944 14.456619077941749 0.45008302813902484 0 0 0
92 1 12.286146205660536 14.503181155022578 2.442406567413242 0 0 0
127 1 10.238598475253255 16.55742585230028 2.476927994690959 0 0 0
129 1 12.308745624033312 16.540946640146924 0.4264026860053393 0 0 0
318 1 10.237343502976318 14.476200941177453 4.495522058914896 0 0 0
360 1 12.247322213536824 16.542832580511217 4.476069899098691 0 0 0
90 1 14.328410895708581 14.477369209961596 0.4088196830148818 0 0 0
96 1 16.333411355502385 14.478027284530341 2.4478749165974087 0 0 0
131 1 14.292468286307672 16.55686583711561 2.4558586585198965 0 0 0
133 1 16.315405535305363 16.542056689450096 0.4299259083711972 0 0 0
322 1 14.276463449494043 14.476287231906161 4.468819663884407 0 0 0
364 1 16.305937600048917 16.548776577007356 4.442189657250999 0 0 0
94 1 18.357528143410264 14.46995159036231 0.379636145902421 0 0 0
98 1 22.41887033618579 14.503532847030568 0.40644236423177754 0 0 0
100 1 20.390469587615776 14.493408371793473 2.3860934414214285 0 0 0
135 1 18.35981173672293 16.548969379101052 2.4021779900050437 0 0 0
137 1 20.375906761459195 16.55546445533713 0.38231602033290574 0 0 0
139 1 22.407591024295478 16.57652754635893 2.3996057106959863 0 0 0
326 1 18.38223335264288 14.498219454939965 4.467566498657405 0 0 0
330 1 22.42704728674169 14.486848092843525 4.410524807938048 0 0 0
368 1 20.414904890979834 16.57510278837862 4.43205544364951 0 0 0
102 1 26.46278276475102 14.486996977254561 0.4009486930423218 0 0 0
104 1 24.448048908306777 14.512777637969835 2.4094373477923767 0 0 0
141 1 24.463882247793347 16.57912194057182 0.3957161322916847 0 0 0
143 1 26.47404791547085 16.564882716716593 2.4483844843187246 0 0 0
334 1 26.47813068588639 14.504584145618875 4.4331881100719315 0 0 0
372 1 24.4436660044629 16.57537967168986 4.430960277015196 0 0 0
106 1 30.516252874400415 14.514511856792394 0.42155486594338804 0 0 0
108 1 28.500897746206448 14.522360913396897 2.4220812878760234 0 0 0
145 1 28.49669251512527 16.556811789024078 0.4277416332736182 0 0 0
147 1 30.50256658093595 16.586228896220252 2.4341130632559334 0 0 0
338 1 30.535465428198147 14.553778434118003 4.483094671352003 0 0 0
376 1 28.48922992537496 16.58577553435826 4.465306173866076 0 0 0
110 1 34.543851735908014 14.52073769325275 0.41121918025944404 0 0 0
112 1 32.543988491457235 14.536479439892299 2.441313893392514 0 0 0
149 1 32.54894803593473 16.57246599264479 0.4272287299983647 0 0 0
151 1 34.55985600698022 16.563306652931725 2.502399683843801 0 0 0
342 1 34.6055278235125 14.517951149282885 4.494800525154929 0 0 0
380 1 32.55719403561692 16.592140652784483 4.4798657898562215 0 0 0
114 1 38.45676096521089 14.490749382967683 0.4169969650599566 0 0 0
116 1 36.550624107603326 14.504737584109623 2.4810900424937796 0 0 0
153 1 36.515748114932855 16.58226643870299 0.45818877744610653 0 0 0
155 1 38.50002606406722 16.603331225508263 2.5032705039117387 0 0 0
346 1 38.540243754233174 14.510124043763089 4.543021993392452 0 0 0
384 1 36.56712294098843 16.60007555938393 4.557612247006823 0 0 0
118 1 2.3643232775344054 18.71587644862441 0.4475678078482734 0 0 0
120 1 0.4077706268146693 18.684927864363367 2.497535205027593 0 0 0
124 1 4.2983453677343135 18.678528764327094 2.521669919990607 0 0 0
159 1 2.36321213841359 20.81355334231939 2.5419610486432815 0 0 0
160 1 4.321548446482728 20.785209516706928 0.47197618082852427 0 0 0
350 1 2.333925636541961 18.66026188185068 4.616025187213348 0 0 0
388 1 0.4397687231705142 20.577838804266367 4.409120437663657 0 0 0
389 1 4.2726084640335245 20.7383405285149 4.4916637347958295 0 0 0
122 1 6.2790169733559065 18.670489740521937 0.4532889939977429 0 0 0
128 1 8.284134868223745 18.638142240168825 2.488217761009155 0 0 0
162 1 6.287365186941866 20.76183059270323 2.4796547304878853 0 0 0
164 1 8.296549545546341 20.73573042064776 0.4779982307999796 0 0 0
353 1 6.24802981447634 18.703189457206197 4.49881533517963 0 0 0
392 1 8.265468192517996 20.746022548469266 4.484890945402365 0 0 0
126 1 10.274716373217277 18.635962587481778 0.46011702976282715 0 0 0
132 1 12.283154426624119 18.630999847521586 2.455240353442171 0 0 0
166 1 10.26312420181227 20.759900463306032 2.4461174631301112 0 0 0
168 1 12.265328171588578 20.745460647495797 0.41168818615562275 0 0 0
357 1 10.256912259685892 18.630255328551453 4.484138463134099 0 0 0
396 1 12.252130035117803 20.69860908726497 4.458261280504253 0 0 0
130 1 14.300779549966464 18.657463766027153 0.4192300178493059 0 0 0
136 1 16.306219317312387 18.60835719541936 2.441702652525324 0 0 0
170 1 14.29576181189609 20.6949853826607 2.446581306288517 0 0 0
172 1 16.320383873280925 20.704028417503654 0.4355632470092145 0 0 0
361 1 14.258624354806463 18.63478591033484 4.442444476003275 0 0 0
400 1 16.328727955748032 20.66352554119867 4.45206744071046 0 0 0
134 1 18.35430702837778 18.627158237929113 0.39645772058345824 0 0 0
138 1 22.423517537137013 18.650064075274198 0.39018761047677225 0 0 0
140 1 20.39830764530453 18.608621835751055 2.424011723111016 0 0 0
174 1 18.369788050634256 20.6820560654932 2.430852579041021 0 0 0
176 1 20.38712486293375 20.696006229253648 0.38937775837340277 0 0 0
178 1 22.397144366815567 20.70868809524708 2.4069182835380016 0 0 0
365 1 18.381943909497114 18.611063560533033 4.39770146368187 0 0 0
369 1 22.409361603107918 18.64566322842092 4.436375198997007 0 0 0
404 1 20.39570947503159 20.688199725831243 4.419990032438184 0 0 0
142 1 26.483765837039407 18.624197249713074 0.4170077934430579 0 0 0
144 1 24.45480976649574 18.637492043946448 2.441319947317878 0 0 0
180 1 24.4538631014685 20.703585889623817 0.43136795588695376 0 0 0
182 1 26.500696448606774 20.689959517498764 2.4427434346038006 0 0 0
373 1 26.472717147536713 18.639175013705923 4.483920261039085 0 0 0
408 1 24.446231520738905 20.700997031521034 4.429606362919861 0 0 0
146 1 30.54848458401396 18.621798961778826 0.4015096739269465 0 0 0
148 1 28.506017921337133 18.639039916723178 2.427698954736758 0 0 0
184 1 28.532894953574285 20.676647488927088 0.4417008000569188 0 0 0
186 1 30.533265460905408 20.6791465206883 2.4698617485939023 0 0 0
377 1 30.557829777942466 18.639461860724307 4.494578431501063 0 0 0
412 1 28.520223414132317 20.704724118842883 4.4695204401476385 0 0 0
150 1 34.56560860728101 18.64985994614226 0.4595144667619407 0 0 0
152 1 32.54799093002513 18.61965570999409 2.458244768938524 0 0 0
188 1 32.57177739604837 20.712661815342788 0.4252623840530844 0 0 0
190 1 34.56534442734016 20.731608082628885 2.496964148964425 0 0 0
381 1 34.57490941777273 18.683600532471434 4.517426525549488 0 0 0
416 1 32.5686423080862 20.740971315977777 4.4919033190767905 0 0 0
157 1 0.39214441479376205 20.80005956014407 0.5281672245766381 0 0 0
154 1 38.483018942234736 18.714991580950603 0.4644339876878042 0 0 0
156 1 36.58194736741232 18.72634861920153 2.556816680265692 0 0 0
192 1 36.538327407796366 20.74415322976416 0.4615117414785755 0 0 0
194 1 38.50603857258753 20.821226371534745 2.5446536405707905 0 0 0
385 1 38.52304442825805 18.710134540087164 4.623257815815953 0 0 0
420 1 36.56460771438149 20.75372901691306 4.508921810918975 0 0 0
158 1 2.3651961484154644 22.815938689604746 0.5106897043035314 0 0 0
163 1 4.376946154567571 22.762572776890607 2.4409500051498334 0 0 0
161 1 6.364610579118113 22.818873815402636 0.4773765434348517 0 0 0
167 1 8.26280519798564 22.855816338546102 2.5181091466538423 0 0 0
390 1 6.285002756810963 22.636559127883643 4.460895660969294 0 0 0
165 1 10.196900806136206 22.861114993341413 0.437699931458898 0 0 0
171 1 12.25715558892378 22.773891450067527 2.437486469389214 0 0 0
197 1 10.389068772543743 26.629483906935164 0.45141028503838704 0 0 0
198 1 10.30458291560704 24.781565715386407 2.4616062941328942 0 0 0
199 1 12.31219903485331 24.780362763639616 0.42636337193657736 0 0 0
202 1 12.286486154019679 26.768464119919518 2.4970928474393355 0 0 0
393 1 10.230518911612023 22.791810945355092 4.478609751974531 0 0 0
422 1 12.228438389862339 24.77591394805361 4.450462072053675 0 0 0
169 1 14.305224003535706 22.750273651827673 0.45078882976768236 0 0 0
175 1 16.324605897020675 22.757569360655406 2.482879091422515 0 0 0
200 1 14.30010244125794 26.785701065216227 0.4222665537489445 0 0 0
201 1 14.28415347121235 24.807830758035163 2.4972579126623393 0 0 0
203 1 16.345858507785305 24.801189043695615 0.4076854508976645 0 0 0
206 1 16.303329835318802 26.86458835059029 2.4880187202395807 0 0 0
397 1 14.288385720852506 22.738034112906774 4.46850354283787 0 0 0
423 1 14.242942307130074 26.83439601530797 4.4999924892354874 0 0 0
426 1 16.317391167933526 24.821735268235305 4.489929329392836 0 0 0
173 1 18.36897667136094 22.755443640592922 0.43070264745290643 0 0 0
177 1 22.452051742454103 22.757041812507786 0.41509929469352713 0 0 0
179 1 20.390615464495177 22.740801993625475 2.418269823705223 0 0 0
204 1 18.31695801428801 26.864551947043356 0.42920319220633285 0 0 0
205 1 18.37327574825968 24.812618100816355 2.4764807839856933 0 0 0
207 1 20.370328711344317 24.808898700044278 0.43456623083022966 0 0 0
209 1 22.428182359811537 24.82943278140572 2.4305154877313324 0 0 0
210 1 20.37519332543826 26.875272405724637 2.4118759812001582 0 0 0
401 1 18.358330908997463 22.73974810274374 4.4731187915649455 0 0 0
405 1 22.412356272296343 22.76505208908013 4.460820852274205 0 0 0
427 1 18.360860393406956 26.853623020327355 4.483994198475586 0 0 0
430 1 20.38057245373779 24.825193241815395 4.46384057260278 0 0 0
431 1 22.477796721038366 26.85106585292623 4.461322382423122 0 0 0
181 1 26.48014754851786 22.73486232937589 0.44845780720709605 0 0 0
183 1 24.447687683711166 22.754534449105503 2.43936007735107 0 0 0
211 1 24.46682238874 24.854192029986834 0.4501654189822636 0 0 0
213 1 26.48921374805888 24.796452380241384 2.444056728069267 0 0 0
409 1 26.48650844401669 22.75125298490293 4.423585470802283 0 0 0
434 1 24.443720693054193 24.810026055138668 4.456311813076251 0 0 0
435 1 26.53275474105356 26.8171533244659 4.4111229398050575 0 0 0
185 1 30.535547225178377 22.780092942865302 0.44756522879780314 0 0 0
187 1 28.55772062851218 22.761410824191266 2.454018619224043 0 0 0
215 1 28.497827467192312 24.797205405464904 0.4338297877607393 0 0 0
216 1 30.47932124387826 26.705368581974884 0.36339126387287796 0 0 0
217 1 30.572077246671608 24.860991029460436 2.4606294679011285 0 0 0
218 1 28.49489105699971 26.812222447375333 2.4186226549975647 0 0 0
413 1 30.52857706911876 22.740515995172437 4.456181611977098 0 0 0
438 1 28.582239921614715 24.849251212726053 4.417522711136845 0 0 0
189 1 34.57025880731117 22.824955601559534 0.4437641363932621 0 0 0
191 1 32.52568117352591 22.721365127552417 2.4269359319110264 0 0 0
219 1 32.52932108483396 24.836474281686233 0.47498134358671346 0 0 0
220 1 34.45122046850311 24.600365658608215 2.484402197811952 0 0 0
417 1 34.56427072545982 22.738915550710338 4.492770052592631 0 0 0
441 1 32.50505819520891 24.630019326136246 4.418961770216213 0 0 0
193 1 38.44872977035472 22.78743062967159 0.43709064653854063 0 0 0
195 1 36.50643960478734 22.72273360533942 2.4547232942969486 0 0 0
221 1 12.300317141380297 28.567165888961103 0.4093511338023725 0 0 0
222 1 14.246685554477022 28.756601991115716 2.43588206056716 0 0 0
223 1 16.210681444185546 28.877823808810625 0.44698094894053 0 0 0
226 1 16.30885138763416 30.679908003360737 2.4951246586019673 0 0 0
442 1 16.260825309918093 28.791111529128845 4.505069780081685 0 0 0
208 1 22.430778056309187 26.922624489173256 0.4312937298418556 0 0 0
224 1 18.224340480565946 30.9495966361921 0.44346720993487443 0 0 0
225 1 18.31583558338955 28.856381101722352 2.443348601754041 0 0 0
227 1 20.375241958610488 28.94142880264229 0.3802271119021349 0 0 0
228 1 22.482016945657843 30.977730852417505 0.45880190714033586 0 0 0
229 1 22.46719245993515 28.877268146132067 2.4503796647716025 0 0 0
230 1 20.399074228124952 30.83338170518726 2.5176127255006073 0 0 0
443 1 18.30558933996435 30.681675893322982 4.583579986097994 0 0 0
445 1 20.42301861411073 28.798364475784883 4.4713244050772145 0 0 0
446 1 22.447989742692283 30.7483151854401 4.580638022068592 0 0 0
214 1 24.495156155963198 26.89489636745954 2.424279299093727 0 0 0
212 1 26.560049117575684 26.899261166785248 0.4301284961355999 0 0 0
231 1 24.533739032362167 28.979561457441903 0.43297310411621676 0 0 0
232 1 26.431360308634595 28.80614787341507 2.4709306250597276 0 0 0
233 1 24.3912472121834 30.796672935699227 2.5258179247920793 0 0 0
449 1 24.513487285919165 28.857562133978245 4.515654494859243 0 0 0
234 1 18.14826432479985 34.45968800583809 0.7087330524846825 0 0 0
235 1 18.26592722754099 32.59233836452994 2.685148522811061 0 0 0
236 1 20.445937524081245 32.91484662504915 0.6664020274157411 0 0 0
238 1 22.417993473757615 32.85648150849038 2.7383784786071503 0 0 0
239 1 20.07720634088194 34.5413864076272 2.913364623837799 0 0 0
451 1 20.37709883784558 32.53751455462184 4.612616598511929 0 0 0
237 1 23.047447317020826 34.348735889464095 0.6004372719455918 0 0 0
240 1 24.812310443147425 32.38679684077226 0.37167514080653097 0 0 0
2 1 16.256958753513615 39.12872780596188 0.45771711062085324 0 0 0
4 1 18.269342465095097 39.15272703878518 2.585715091702676 0 0 0
6 1 20.481211995787998 38.86527729833005 0.4595587382732082 0 0 0
8 1 22.495701159126092 38.94029705676859 2.5333663499570944 0 0 0
241 1 18.25720244685558 37.21978440308245 0.7017077110661641 0 0 0
242 1 20.622704599989945 35.78459801070544 0.5640322851219726 0 0 0
244 1 22.45356891071828 35.81582563821115 2.819461147864477 0 0 0
245 1 20.221248543927206 37.29661661140917 2.803822526303747 0 0 0
249 1 20.462841965905174 39.227659375310296 4.558376757890862 0 0 0
243 1 22.995390311846858 37.1716013168908 0.514982266038089 0 0 0
252 1 24.470653382061247 39.31256862600904 4.38989080766151 0 0 0
10 1 24.757817032389937 39.11826941243699 0.39871517868526 0 0 1
248 1 16.328343661791713 2.4810888571170224 6.4201467385622415 0 0 0
258 1 14.300279327001139 4.351344548964764 6.451942341530109 0 0 0
456 1 16.31379715505409 4.3184120536827155 8.46781186450792 0 0 0
251 1 20.42398432982754 2.269913177792454 6.521214837284738 0 0 0
262 1 18.392919184532193 4.344857423290474 6.419529626690738 0 0 0
266 1 22.456254497371688 4.325949318856509 6.426739188404209 0 0 0
452 1 18.31885485838313 2.478209776078306 8.328283969442339 0 0 0
453 1 22.478669785680122 2.4668895608116816 8.33804821865234 0 0 0
460 1 20.388147017849178 4.238639519977091 8.498369598962823 0 0 0
254 1 24.48062021774684 2.3384356371421813 6.377574544480785 0 0 0
270 1 26.532092994825028 4.249721244224814 6.423724159628435 0 0 0
464 1 24.5054065144109 4.276966190566069 8.424728541193218 0 0 0
259 1 12.22054048014165 6.274683316685486 6.476013263443245 0 0 0
280 1 10.199902862423752 8.282656875525964 6.472965310688391 0 0 0
472 1 12.20460738976902 8.307810999758502 8.464887414790022 0 0 0
263 1 16.285724152098403 6.29962290561399 6.445069967971503 0 0 0
284 1 14.273864459637883 8.262148603988601 6.493015654105427 0 0 0
454 1 14.227833694500141 6.230930130997852 8.51192749530312 0 0 0
476 1 16.281222957834917 8.25771349700714 8.512456968353524 0 0 0
267 1 20.416745841418585 6.313466464642612 6.458567739337742 0 0 0
288 1 18.35076177516139 8.331501291368802 6.432761974792204 0 0 0
292 1 22.440868304683534 8.31753579657569 6.455699642573552 0 0 0
457 1 18.30803835279232 6.260587914805338 8.486958094811532 0 0 0
461 1 22.486437566483595 6.247235639837097 8.493740646341516 0 0 0
480 1 20.37344911093072 8.30591340770817 8.474400813298542 0 0 0
271 1 24.546451915752357 6.271249769342703 6.466192231180699 0 0 0
296 1 26.529243757192916 8.300197531544747 6.4687392144162095 0 0 0
465 1 26.58868379800918 6.219993263226156 8.466026496609581 0 0 0
484 1 24.50576925307916 8.238341124458739 8.477518155902947 0 0 0
274 1 28.591614619468757 6.230833295069069 6.487441230814719 0 0 0
300 1 30.60652362246042 8.280465274107675 6.460286076877233 0 0 0
467 1 30.48671780769644 6.456866391420662 8.47653555450918 0 0 0
488 1 28.533836436136927 8.326827873642634 8.466603956490353 0 0 0
304 1 34.558611463698064 8.484503509075948 6.440064320747385 0 0 0
492 1 32.58396959449762 8.37354294694485 8.415984409664611 0 0 0
277 1 4.3245706864378635 10.591282706133669 6.361023791817053 0 0 0
311 1 2.3866253144641774 12.496927264634117 6.435113683522412 0 0 0
281 1 8.191813668652662 10.32517470437426 6.55685612230793 0 0 0
315 1 6.249261543046442 12.455336240204558 6.5429929715240425 0 0 0
496 1 8.184326569733093 12.418023074972607 8.539093877022902 0 0 0
285 1 12.261392188395408 10.340616497993844 6.459674045490991 0 0 0
319 1 10.191177552635967 12.425876536323369 6.519739486723286 0 0 0
469 1 10.231666015903418 10.327209731630129 8.455601520617599 0 0 0
500 1 12.259178790083316 12.370104304054534 8.456429166269622 0 0 0
289 1 16.33918522076984 10.344476552202467 6.455252702704096 0 0 0
323 1 14.294325634920844 12.416201257866875 6.459148714338543 0 0 0
473 1 14.281098561828681 10.333788333388677 8.464194366896505 0 0 0
504 1 16.29097417609601 12.435535999174423 8.456619246646156 0 0 0
293 1 20.356940809952988 10.378141030342528 6.439551470988673 0 0 0
327 1 18.357275284247777 12.421070590413665 6.4833488477539865 0 0 0
331 1 22.42583345577202 12.433713412146895 6.4359720622642085 0 0 0
477 1 18.349685593457544 10.331376340487656 8.479228074122522 0 0 0
481 1 22.438280639879675 10.325810160761987 8.445213171638533 0 0 0
508 1 20.415319982244746 12.406172626183734 8.417769443351023 0 0 0
297 1 24.453922444379234 10.365407473559069 6.46044952005412 0 0 0
335 1 26.515899009740178 12.449650286440201 6.485671087110579 0 0 0
485 1 26.478714122928466 10.37132943500299 8.460532022887818 0 0 0
512 1 24.438011325503837 12.422210150779254 8.448923119477861 0 0 0
301 1 28.553675610775343 10.371425500764937 6.46777598952635 0 0 0
339 1 30.515799599730883 12.504307639725292 6.482440904809977 0 0 0
489 1 30.592432151271243 10.317543879085875 8.475298058589798 0 0 0
516 1 28.530148567594345 12.423765968220842 8.486663508959111 0 0 0
305 1 32.54089148347548 10.36618606765274 6.4583835308166275 0 0 0
343 1 34.577793172895646 12.428085528674204 6.461809701360775 0 0 0
493 1 34.56963996965452 10.396610408346808 8.44685817122327 0 0 0
520 1 32.58499502444774 12.409101435889331 8.458571313638314 0 0 0
308 1 36.57271992164115 10.399350529026327 6.5093419196213205 0 0 0
347 1 38.55552566431921 12.453979045379565 6.526018080806455 0 0 0
524 1 36.470232006846494 12.41438744684674 8.399264809370296 0 0 0
312 1 0.4460942452967313 14.516226480813462 6.51035591043681 0 0 0
316 1 4.267551593637465 14.496921455786044 6.583301899999962 0 0 0
351 1 2.432701098645956 16.557041831521094 6.489320881166776 0 0 0
320 1 8.221198807919459 14.53532936341661 6.516773151917953 0 0 0
354 1 6.159152772603983 16.590460750480283 6.606203004873957 0 0 0
495 1 6.262981259449294 14.496992905507426 8.44518211803314 0 0 0
526 1 8.107100799300344 16.57126148275155 8.620600103407897 0 0 0
324 1 12.24663330514565 14.486164557733302 6.512300689479278 0 0 0
358 1 10.191065160545202 16.58366104164084 6.559324530623579 0 0 0
497 1 10.186789765481926 14.470114052425803 8.53035991490068 0 0 0
530 1 12.240717325967408 16.56596152598103 8.482025596874529 0 0 0
328 1 16.280860399874705 14.502298346706773 6.465263285644786 0 0 0
362 1 14.256790651110927 16.56400427845362 6.474327536901483 0 0 0
501 1 14.263968030201148 14.470257462746885 8.50932733156881 0 0 0
534 1 16.29261958933131 16.5612995845344 8.438295141157207 0 0 0
332 1 20.390807917178826 14.487876054888194 6.4369209607823 0 0 0
366 1 18.33551882258538 16.57817131191515 6.457158887040156 0 0 0
370 1 22.425269361579872 16.548193114703846 6.465754608129478 0 0 0
505 1 18.34022522428173 14.487150234817113 8.425675976614148 0 0 0